ITEM: TIMESTEP
0
ITEM: NUMBER OF ATOMS
18
ITEM: BOX BOUNDS pp pp pp xy xz yz
0.562914 69.4599 2.32439e-15
1.72073 39.6809 -1.46795
7.42652 37.7996 1.95187e-15
ITEM: ATOMS id type xu yu zu
 1 1 36.9909 21.2184 22.9487
 2 1 36.0515 21.1598 24.0112
 3 1 34.8336 20.5271 23.7432
 4 1 34.4623 20.1809 22.4083
 5 1 35.3306 20.5081 21.3448
 6 1 36.5736 21.0558 21.6071
 7 2 34.9086 20.2871 19.9225
 8 3 37.9947 21.5027 23.1336
 9 2 36.4988 21.4347 25.421
 10 3 34.1053 20.3773 24.5837
 11 3 33.4961 19.7939 22.2007
 12 3 37.2485 21.3251 20.8404
 13 3 37.3291 22.189 25.4472
 14 3 36.7987 20.4891 25.8327
 15 3 35.7308 21.9335 26.0628
 16 3 35.5201 20.8652 19.1633
 17 3 33.7557 20.4825 19.8134
 18 3 35.1745 19.2126 19.6874
ITEM: TIMESTEP
1
ITEM: NUMBER OF ATOMS
18
ITEM: BOX BOUNDS pp pp pp xy xz yz
0.0470636 68.9441 2.32439e-15
1.66453 39.6247 -1.46795
7.23927 37.6123 1.95187e-15
ITEM: ATOMS id type xu yu zu
 1 1 36.4172 21.6482 22.7334
 2 1 35.6709 21.1134 23.7988
 3 1 34.5316 20.3327 23.497
 4 1 34.1736 20.1414 22.1705
 5 1 35.0603 20.4544 21.138
 6 1 36.1563 21.2669 21.3816
 7 2 34.7351 19.9758 19.69
 8 3 37.1948 22.325 22.9073
 9 2 36.1875 21.2295 25.2283
 10 3 33.8642 20.0792 24.3147
 11 3 33.1933 19.7162 21.9583
 12 3 36.7498 21.6934 20.566
 13 3 35.6285 22.079 25.7096
 14 3 37.2658 21.4413 25.3331
 15 3 36.0085 20.3379 25.8881
 16 3 35.6013 20.1966 18.9635
 17 3 33.8077 20.558 19.3836
 18 3 34.3262 18.9642 19.5935
ITEM: TIMESTEP
2
ITEM: NUMBER OF ATOMS
18
ITEM: BOX BOUNDS pp pp pp xy xz yz
0.596216 69.4932 2.32439e-15
1.60483 39.565 -1.46795
7.33317 37.7062 1.95187e-15
ITEM: ATOMS id type xu yu zu
 1 1 36.965 21.4727 22.5233
 2 1 36.4832 20.8116 23.6658
 3 1 35.2968 20.0757 23.6079
 4 1 34.5866 19.9826 22.372
 5 1 35.0072 20.8266 21.2934
 6 1 36.2704 21.4683 21.3354
 7 2 34.3019 20.6534 19.9732
 8 3 37.9815 21.9119 22.5426
 9 2 37.253 20.9271 24.9549
 10 3 35.0093 19.4717 24.432
 11 3 33.8001 19.2382 22.2166
 12 3 36.7057 21.9316 20.4556
 13 3 36.9408 21.9012 25.3535
 14 3 38.3116 20.8856 24.7422
 15 3 37.0906 20.0516 25.6525
 16 3 34.4737 21.569 19.3869
 17 3 33.2458 20.3749 20.1877
 18 3 34.7324 19.8181 19.3991
ITEM: TIMESTEP
3
ITEM: NUMBER OF ATOMS
18
ITEM: BOX BOUNDS pp pp pp xy xz yz
0.539213 69.4362 2.32439e-15
1.97608 39.9362 -1.46795
7.20167 37.5747 1.95187e-15
ITEM: ATOMS id type xu yu zu
 1 1 36.8131 21.2177 21.9354
 2 1 36.7016 20.892 23.2593
 3 1 35.571 20.2122 23.6925
 4 1 34.526 19.8784 22.7995
 5 1 34.6595 20.2686 21.4534
 6 1 35.7378 21.0842 21.0852
 7 2 33.5923 19.9426 20.442
 8 3 37.7299 21.5812 21.594
 9 2 37.6412 21.5476 24.2115
 10 3 35.5369 19.7669 24.7062
 11 3 33.5682 19.4756 23.1313
 12 3 35.7334 21.555 20.0658
 13 3 38.6243 21.627 23.7338
 14 3 37.6402 21.0088 25.1916
 15 3 37.3751 22.6257 24.3658
 16 3 33.9847 19.2866 19.5848
 17 3 33.0801 20.8311 20.0869
 18 3 32.8191 19.3081 20.91
ITEM: TIMESTEP
4
ITEM: NUMBER OF ATOMS
18
ITEM: BOX BOUNDS pp pp pp xy xz yz
0.330362 69.2274 2.32439e-15
1.89429 39.8544 -1.46795
8.01507 38.3881 1.95187e-15
ITEM: ATOMS id type xu yu zu
 1 1 36.8397 21.4858 23.2478
 2 1 36.0891 21.1258 24.4158
 3 1 34.8268 20.4097 24.2416
 4 1 34.2699 20.2468 22.9735
 5 1 34.987 20.6579 21.8665
 6 1 36.2983 21.2071 22.0008
 7 2 34.4047 20.4288 20.5612
 8 3 37.7839 22.0839 23.3465
 9 2 36.6005 21.4416 25.8101
 10 3 34.2987 19.9642 25.0659
 11 3 33.2418 19.837 22.9062
 12 3 36.9126 21.3312 21.1722
 13 3 37.694 21.6522 25.8868
 14 3 36.3511 20.6444 26.5393
 15 3 36.1287 22.4073 26.1319
 16 3 34.7436 19.3414 20.2422
 17 3 34.6568 21.1968 19.8639
 18 3 33.273 20.4042 20.6001
ITEM: TIMESTEP
5
ITEM: NUMBER OF ATOMS
18
ITEM: BOX BOUNDS pp pp pp xy xz yz
0.350816 69.2478 2.32439e-15
1.70298 39.6631 -1.46795
6.90862 37.2817 1.95187e-15
ITEM: ATOMS id type xu yu zu
 1 1 36.7376 21.2218 22.2208
 2 1 35.9897 20.9826 23.4096
 3 1 34.72 20.3608 23.264
 4 1 34.247 20.0303 21.986
 5 1 35.0099 20.2746 20.8317
 6 1 36.2101 20.9283 20.9595
 7 2 34.6133 19.6959 19.5268
 8 3 37.6665 21.7006 22.3002
 9 2 36.4162 21.5183 24.7744
 10 3 34.0759 20.081 24.1134
 11 3 33.4001 19.3435 21.9834
 12 3 36.835 21.1115 20.0603
 13 3 37.038 22.4311 24.7296
 14 3 36.9273 20.6448 25.2806
 15 3 35.504 21.7759 25.3733
 16 3 35.353 18.935 19.1574
 17 3 34.44 20.5387 18.817
 18 3 33.6107 19.2261 19.5851
ITEM: TIMESTEP
6
ITEM: NUMBER OF ATOMS
18
ITEM: BOX BOUNDS pp pp pp xy xz yz
0.291765 69.1888 2.32439e-15
1.76153 39.7217 -1.46795
7.26527 37.6383 1.95187e-15
ITEM: ATOMS id type xu yu zu
 1 1 36.6904 20.934 22.6792
 2 1 35.9642 20.7149 23.8498
 3 1 34.811 19.9898 23.7653
 4 1 34.187 19.7767 22.5437
 5 1 34.8856 20.0351 21.3662
 6 1 36.1315 20.6864 21.4628
 7 2 34.208 19.9047 19.9874
 8 3 37.741 21.3825 22.7245
 9 2 36.3058 21.4739 25.1336
 10 3 34.2647 19.7949 24.6612
 11 3 33.2075 19.3278 22.5351
 12 3 36.5274 21.0775 20.5439
 13 3 35.4217 21.6572 25.7315
 14 3 36.8378 22.4065 24.8428
 15 3 36.918 20.78 25.6861
 16 3 33.713 20.8626 19.8123
 17 3 33.4712 19.0767 20.0547
 18 3 34.9298 19.7944 19.1721
ITEM: TIMESTEP
7
ITEM: NUMBER OF ATOMS
18
ITEM: BOX BOUNDS pp pp pp xy xz yz
0.770662 69.6677 2.32439e-15
1.29048 39.2506 -1.46795
6.81562 37.1887 1.95187e-15
ITEM: ATOMS id type xu yu zu
 1 1 37.0754 21.1706 22.0853
 2 1 36.5458 20.5947 23.2713
 3 1 35.3132 19.9141 23.2399
 4 1 34.6738 19.7182 22.0243
 5 1 35.3009 20.1907 20.8053
 6 1 36.4916 20.9564 20.8489
 7 2 34.7257 19.8728 19.4878
 8 3 37.94 21.7754 22.1728
 9 2 37.2141 20.7745 24.5997
 10 3 34.788 19.6827 24.19
 11 3 33.7335 19.152 21.988
 12 3 37.039 21.205 19.904
 13 3 36.9885 21.7744 24.9548
 14 3 38.2658 20.4186 24.5173
 15 3 36.8719 20.1275 25.3713
 16 3 33.6405 20.1971 19.3984
 17 3 34.7816 18.7657 19.4185
 18 3 35.3202 20.2027 18.633
ITEM: TIMESTEP
8
ITEM: NUMBER OF ATOMS
18
ITEM: BOX BOUNDS pp pp pp xy xz yz
0.567465 69.4645 2.32439e-15
1.71593 39.6761 -1.46795
7.16502 37.5381 1.95187e-15
ITEM: ATOMS id type xu yu zu
 1 1 37.0139 21.3531 22.4101
 2 1 36.445 20.7638 23.5556
 3 1 35.2124 20.142 23.438
 4 1 34.5759 20.0282 22.1822
 5 1 35.257 20.3944 21.0123
 6 1 36.4799 20.9875 21.1156
 7 2 34.7004 20.1113 19.6936
 8 3 37.9201 21.9525 22.4792
 9 2 36.8518 21.1962 24.91
 10 3 34.5707 20.0289 24.3065
 11 3 33.5798 19.5498 22.1266
 12 3 37.0325 21.3187 20.2155
 13 3 36.3317 22.1164 25.1429
 14 3 37.8998 21.4352 24.9528
 15 3 36.6175 20.442 25.6603
 16 3 33.9213 19.2756 19.6294
 17 3 35.545 19.8128 19.0428
 18 3 34.372 21.0561 19.3115
ITEM: TIMESTEP
9
ITEM: NUMBER OF ATOMS
18
ITEM: BOX BOUNDS pp pp pp xy xz yz
1.36621 70.2632 2.32439e-15
1.95373 39.9139 -1.46795
7.91452 38.2876 1.95187e-15
ITEM: ATOMS id type xu yu zu
 1 1 37.7713 21.6846 22.837
 2 1 37.4144 21.375 24.161
 3 1 36.2437 20.6123 24.4394
 4 1 35.4133 20.2594 23.4291
 5 1 35.7203 20.6023 22.1094
 6 1 36.8879 21.3566 21.8417
 7 2 35.0246 19.9363 20.9514
 8 3 38.7089 22.3051 22.6061
 9 2 38.2648 21.9598 25.309
 10 3 35.9855 20.3627 25.4232
 11 3 34.6623 19.5463 23.6416
 12 3 37.1176 21.6654 20.8325
 13 3 38.511 23.0546 25.1388
 14 3 39.1694 21.3337 25.4131
 15 3 37.6821 21.9999 26.227
 16 3 35.1673 18.813 20.9397
 17 3 35.4065 20.3042 19.9751
 18 3 33.928 20.1748 20.9194
ITEM: TIMESTEP
10
ITEM: NUMBER OF ATOMS
18
ITEM: BOX BOUNDS pp pp pp xy xz yz
0.169164 69.0662 2.32439e-15
1.77118 39.7313 -1.46795
7.00432 37.3774 1.95187e-15
ITEM: ATOMS id type xu yu zu
 1 1 36.4883 21.3397 22.7278
 2 1 35.5693 20.625 23.5161
 3 1 34.3855 20.083 22.9242
 4 1 34.2705 20.0827 21.5407
 5 1 35.142 20.8059 20.7571
 6 1 36.2849 21.4129 21.3577
 7 2 34.8155 21.1055 19.3477
 8 3 37.3229 21.854 23.1813
 9 2 35.8601 20.4758 24.9426
 10 3 33.7179 19.4702 23.5719
 11 3 33.3804 19.6636 21.0624
 12 3 37.0487 21.8618 20.7125
 13 3 35.1334 21.1977 25.5322
 14 3 36.9253 20.691 25.1984
 15 3 35.7699 19.3476 25.2985
 16 3 34.3861 22.1549 19.3243
 17 3 34.0913 20.3678 18.9062
 18 3 35.7287 21.1529 18.8495
ITEM: TIMESTEP
11
ITEM: NUMBER OF ATOMS
18
ITEM: BOX BOUNDS pp pp pp xy xz yz
0.170015 69.067 2.32439e-15
1.42103 39.3812 -1.46795
6.44537 36.8184 1.95187e-15
ITEM: ATOMS id type xu yu zu
 1 1 36.3664 21.0746 22.2243
 2 1 35.6059 20.2249 22.9845
 3 1 34.5416 19.5297 22.4234
 4 1 34.3036 19.597 21.0419
 5 1 35.1109 20.4091 20.2619
 6 1 36.0986 21.15 20.8558
 7 2 34.719 20.6526 18.839
 8 3 37.1326 21.7157 22.6501
 9 2 35.8948 20.0634 24.4332
 10 3 33.9127 18.921 23.0956
 11 3 33.5724 18.9167 20.5543
 12 3 36.6452 21.8855 20.295
 13 3 35.3043 19.2696 24.9859
 14 3 35.599 20.9423 24.9635
 15 3 36.9723 19.9727 24.4936
 16 3 34.086 21.6012 18.9387
 17 3 34.0278 19.8891 18.4256
 18 3 35.5616 20.9915 18.2779
ITEM: TIMESTEP
12
ITEM: NUMBER OF ATOMS
18
ITEM: BOX BOUNDS pp pp pp xy xz yz
0.687715 69.5847 2.32439e-15
1.88959 39.8497 -1.46795
7.57387 37.9469 1.95187e-15
ITEM: ATOMS id type xu yu zu
 1 1 37.0882 21.2287 22.9945
 2 1 36.3287 20.9259 24.0912
 3 1 35.152 20.1713 23.9915
 4 1 34.6573 19.8266 22.7305
 5 1 35.4186 20.1666 21.5992
 6 1 36.673 20.8326 21.7185
 7 2 34.8816 19.8634 20.233
 8 3 38.0567 21.7542 23.088
 9 2 36.575 21.7307 25.337
 10 3 34.5313 20.0229 24.8492
 11 3 33.6837 19.3991 22.5873
 12 3 37.2649 21.1797 20.8563
 13 3 36.2958 22.8124 25.0791
 14 3 37.5802 21.7044 25.6641
 15 3 35.9012 21.3347 26.1218
 16 3 34.1273 20.6117 19.8979
 17 3 34.2862 18.9269 20.247
 18 3 35.6218 19.7771 19.399
ITEM: TIMESTEP
13
ITEM: NUMBER OF ATOMS
18
ITEM: BOX BOUNDS pp pp pp xy xz yz
0.302614 69.1996 2.32439e-15
1.56833 39.5285 -1.46795
7.71012 38.0832 1.95187e-15
ITEM: ATOMS id type xu yu zu
 1 1 36.7668 21.2342 23.0054
 2 1 36.0884 20.8635 24.1763
 3 1 34.9476 20.1941 24.0964
 4 1 34.2854 19.9845 22.8631
 5 1 34.8641 20.4367 21.6633
 6 1 36.1482 20.9967 21.7149
 7 2 34.1312 20.3173 20.3893
 8 3 37.8069 21.4891 23.0684
 9 2 36.6701 21.2175 25.4852
 10 3 34.5415 19.8603 25.0433
 11 3 33.3905 19.3568 22.795
 12 3 36.7214 21.2203 20.766
 13 3 35.967 21.8236 26.1851
 14 3 37.5762 21.8167 25.2867
 15 3 36.8949 20.2751 26.0078
 16 3 34.694 20.808 19.6082
 17 3 33.1633 20.7484 20.5062
 18 3 33.9607 19.2732 20.1676
ITEM: TIMESTEP
14
ITEM: NUMBER OF ATOMS
18
ITEM: BOX BOUNDS pp pp pp xy xz yz
0.123964 69.021 2.32439e-15
1.20063 39.1608 -1.46795
7.51087 37.8839 1.95187e-15
ITEM: ATOMS id type xu yu zu
 1 1 36.4324 21.175 22.9525
 2 1 35.8539 20.6244 24.1022
 3 1 34.6429 19.9147 23.9209
 4 1 34.0499 19.8125 22.6504
 5 1 34.6431 20.4148 21.4982
 6 1 35.8269 21.0902 21.6453
 7 2 34.1937 19.9977 20.0974
 8 3 37.4825 21.4209 23.0043
 9 2 36.4674 20.7863 25.4714
 10 3 34.1173 19.5473 24.8359
 11 3 33.1639 19.1776 22.4978
 12 3 36.3398 21.4202 20.7867
 13 3 35.6853 21.3201 26.1022
 14 3 37.367 21.1938 25.2761
 15 3 36.6989 19.7232 25.8637
 16 3 33.1304 20.3215 20.0553
 17 3 34.3082 18.9405 19.9954
 18 3 34.7492 20.5151 19.2926
ITEM: TIMESTEP
15
ITEM: NUMBER OF ATOMS
18
ITEM: BOX BOUNDS pp pp pp xy xz yz
0.688364 69.5854 2.32439e-15
1.65723 39.6174 -1.46795
7.05067 37.4237 1.95187e-15
ITEM: ATOMS id type xu yu zu
 1 1 37.0824 21.4114 22.318
 2 1 36.4426 21.2681 23.5906
 3 1 35.3322 20.3734 23.6934
 4 1 34.812 19.7699 22.5292
 5 1 35.4685 19.9549 21.3137
 6 1 36.6334 20.7536 21.2149
 7 2 34.8722 19.3892 20.0788
 8 3 38.0167 21.9567 22.279
 9 2 36.9364 22.0061 24.7488
 10 3 34.8557 20.1605 24.6086
 11 3 33.8094 19.288 22.5919
 12 3 37.1854 20.8583 20.2854
 13 3 37.5941 22.912 24.498
 14 3 37.4094 21.2307 25.3568
 15 3 35.9708 22.4144 25.2356
 16 3 33.725 19.2009 20.1144
 17 3 35.203 18.3626 19.8083
 18 3 35.0791 19.8895 19.1176
ITEM: TIMESTEP
16
ITEM: NUMBER OF ATOMS
18
ITEM: BOX BOUNDS pp pp pp xy xz yz
0.358213 69.2552 2.32439e-15
1.41868 39.3788 -1.46795
6.31352 36.6866 1.95187e-15
ITEM: ATOMS id type xu yu zu
 1 1 36.7642 20.9359 21.9915
 2 1 35.98 20.3225 22.9227
 3 1 34.7276 19.7258 22.4976
 4 1 34.3283 19.7968 21.1575
 5 1 35.292 20.2429 20.1913
 6 1 36.4873 20.8825 20.6612
 7 2 34.8252 20.406 18.7711
 8 3 37.7194 21.3279 22.2852
 9 2 36.2938 20.4616 24.3824
 10 3 33.9343 19.3791 23.207
 11 3 33.362 19.4966 20.9384
 12 3 37.2532 21.2056 19.9287
 13 3 36.6548 19.4147 24.6952
 14 3 35.3208 20.6743 24.8382
 15 3 37.0398 21.2666 24.656
 16 3 35.6778 20.1103 18.1619
 17 3 34.5864 21.4184 18.5844
 18 3 33.9363 19.7868 18.5826
ITEM: TIMESTEP
17
ITEM: NUMBER OF ATOMS
18
ITEM: BOX BOUNDS pp pp pp xy xz yz
0.674265 69.5713 2.32439e-15
1.97508 39.9352 -1.46795
7.24787 37.6209 1.95187e-15
ITEM: ATOMS id type xu yu zu
 1 1 37.2454 21.7937 22.1825
 2 1 36.8771 21.5363 23.4874
 3 1 35.7703 20.7134 23.7109
 4 1 34.9693 20.2508 22.7236
 5 1 35.2059 20.658 21.4059
 6 1 36.3803 21.4267 21.1265
 7 2 34.3008 20.1748 20.3307
 8 3 38.1438 22.3804 21.9062
 9 2 37.6734 21.9807 24.6962
 10 3 35.5821 20.3658 24.6986
 11 3 34.0959 19.5672 22.9473
 12 3 36.4887 21.7962 20.1445
 13 3 36.9869 22.2064 25.5453
 14 3 38.3364 22.8603 24.6258
 15 3 38.43 21.2032 24.8935
 16 3 34.3528 19.05 20.2187
 17 3 34.569 20.579 19.3235
 18 3 33.2835 20.5323 20.4782
ITEM: TIMESTEP
18
ITEM: NUMBER OF ATOMS
18
ITEM: BOX BOUNDS pp pp pp xy xz yz
0.462465 69.3595 2.32439e-15
1.90158 39.8617 -1.46795
7.72407 38.0971 1.95187e-15
ITEM: ATOMS id type xu yu zu
 1 1 36.9226 21.7042 23.0248
 2 1 36.3489 21.1271 24.1864
 3 1 35.2573 20.2609 23.9865
 4 1 34.7132 20.0027 22.7614
 5 1 35.1712 20.6549 21.6513
 6 1 36.2923 21.4901 21.7457
 7 2 34.5244 20.4904 20.2941
 8 3 37.7558 22.3203 23.1351
 9 2 36.6831 21.5842 25.5733
 10 3 34.7707 19.8547 24.9162
 11 3 33.9347 19.2579 22.6606
 12 3 36.647 22.0839 20.8645
 13 3 36.5173 20.75 26.262
 14 3 36.0955 22.5054 25.9007
 15 3 37.7166 21.9653 25.6853
 16 3 34.4262 21.5153 19.8138
 17 3 33.5341 20.0649 20.3392
 18 3 35.0583 19.8156 19.5592
ITEM: TIMESTEP
19
ITEM: NUMBER OF ATOMS
18
ITEM: BOX BOUNDS pp pp pp xy xz yz
0.232813 69.1298 2.32439e-15
1.41968 39.3798 -1.46795
7.48662 37.8597 1.95187e-15
ITEM: ATOMS id type xu yu zu
 1 1 36.6269 20.8821 22.7576
 2 1 35.8612 20.6215 23.9513
 3 1 34.6879 19.8314 23.8586
 4 1 34.2004 19.4796 22.6149
 5 1 34.9254 19.8381 21.4421
 6 1 36.2305 20.3399 21.5228
 7 2 34.2864 19.6363 20.0716
 8 3 37.6474 21.4041 22.8191
 9 2 36.2699 21.1602 25.2702
 10 3 34.1099 19.6596 24.7227
 11 3 33.2033 18.9692 22.5217
 12 3 36.7864 20.5763 20.636
 13 3 37.002 20.4384 25.7333
 14 3 35.2703 21.2404 25.8872
 15 3 36.7766 22.1535 25.1411
 16 3 34.6062 18.646 19.7167
 17 3 34.6853 20.4361 19.4591
 18 3 33.1832 19.5769 20.0568
ITEM: TIMESTEP
20
ITEM: NUMBER OF ATOMS
18
ITEM: BOX BOUNDS pp pp pp xy xz yz
-0.0345862 68.8624 2.32439e-15
1.48658 39.4467 -1.46795
7.76397 38.137 1.95187e-15
ITEM: ATOMS id type xu yu zu
 1 1 36.1995 21.2793 23.0338
 2 1 35.7307 20.7679 24.225
 3 1 34.6111 20.0041 24.218
 4 1 34.0493 19.5912 22.9787
 5 1 34.5709 20.1156 21.7884
 6 1 35.5933 21.0396 21.8398
 7 2 33.8359 19.9018 20.5071
 8 3 37.0714 21.8533 22.9762
 9 2 36.363 21.152 25.5303
 10 3 34.2086 19.513 25.1439
 11 3 33.1169 19.08 22.8823
 12 3 35.9327 21.5895 20.895
 13 3 36.7856 20.1578 26.0034
 14 3 35.5881 21.66 26.1641
 15 3 37.2141 21.8283 25.3309
 16 3 34.5678 19.6428 19.7369
 17 3 33.3061 20.8587 20.1675
 18 3 33.0817 19.0805 20.4349
ITEM: TIMESTEP
21
ITEM: NUMBER OF ATOMS
18
ITEM: BOX BOUNDS pp pp pp xy xz yz
0.520616 69.4176 2.32439e-15
1.74088 39.701 -1.46795
7.89272 38.2658 1.95187e-15
ITEM: ATOMS id type xu yu zu
 1 1 36.9224 21.3924 23.4376
 2 1 36.2395 20.7547 24.4639
 3 1 35.1171 19.9914 24.1723
 4 1 34.6292 19.9009 22.8464
 5 1 35.3916 20.4966 21.8412
 6 1 36.4543 21.3915 22.1603
 7 2 35.0111 20.2708 20.3942
 8 3 37.7214 22.1197 23.7043
 9 2 36.6476 21.0645 25.8679
 10 3 34.61 19.5724 25.0048
 11 3 33.6848 19.3222 22.6322
 12 3 36.9571 21.9407 21.4277
 13 3 36.7876 20.1031 26.4048
 14 3 35.7861 21.6055 26.3957
 15 3 37.4643 21.7596 25.9514
 16 3 35.8772 20.0919 19.7537
 17 3 34.3626 21.0346 19.8773
 18 3 34.3703 19.3757 20.2733
ITEM: TIMESTEP
22
ITEM: NUMBER OF ATOMS
18
ITEM: BOX BOUNDS pp pp pp xy xz yz
0.438616 69.3356 2.32439e-15
1.83588 39.796 -1.46795
8.02387 38.3969 1.95187e-15
ITEM: ATOMS id type xu yu zu
 1 1 36.976 20.993 23.5047
 2 1 36.0539 20.8952 24.5659
 3 1 34.6898 20.6528 24.2051
 4 1 34.3073 20.2835 22.9318
 5 1 35.1944 20.6371 21.8622
 6 1 36.5522 20.9316 22.1459
 7 2 34.7255 20.5856 20.4213
 8 3 37.973 21.1601 23.7581
 9 2 36.5061 20.9501 25.9897
 10 3 33.9533 20.6323 25.0282
 11 3 33.2692 20.0116 22.8062
 12 3 37.2523 21.1649 21.3115
 13 3 36.1234 20.0739 26.58
 14 3 35.9811 21.8672 26.397
 15 3 37.5771 21.1547 26.0752
 16 3 35.2202 19.7647 19.877
 17 3 34.9339 21.4924 19.8408
 18 3 33.6767 20.4365 20.395
ITEM: TIMESTEP
23
ITEM: NUMBER OF ATOMS
18
ITEM: BOX BOUNDS pp pp pp xy xz yz
0.814115 69.7111 2.32439e-15
1.99183 39.952 -1.46795
6.77857 37.1516 1.95187e-15
ITEM: ATOMS id type xu yu zu
 1 1 37.053 21.853 22.0898
 2 1 36.4829 21.3721 23.2802
 3 1 35.3998 20.4615 23.1544
 4 1 34.8347 20.1883 21.8939
 5 1 35.3952 20.7095 20.735
 6 1 36.5165 21.5265 20.8393
 7 2 34.892 20.2184 19.381
 8 3 37.93 22.5259 22.1824
 9 2 36.9731 21.7111 24.6189
 10 3 34.9687 19.9428 23.9623
 11 3 34.0632 19.4179 21.7845
 12 3 37.0762 21.7862 19.9635
 13 3 37.3849 20.8245 25.1742
 14 3 36.1383 22.2481 25.1271
 15 3 37.7955 22.4829 24.6339
 16 3 35.8819 19.7944 18.9683
 17 3 34.5926 21.0544 18.756
 18 3 34.0732 19.4516 19.4517
ITEM: TIMESTEP
24
ITEM: NUMBER OF ATOMS
18
ITEM: BOX BOUNDS pp pp pp xy xz yz
0.345564 69.2426 2.32439e-15
1.17268 39.1328 -1.46795
6.20672 36.5798 1.95187e-15
ITEM: ATOMS id type xu yu zu
 1 1 36.7545 20.7327 21.8602
 2 1 35.9119 20.0171 22.7687
 3 1 34.6611 19.5302 22.281
 4 1 34.3579 19.6122 20.9196
 5 1 35.2509 20.2344 20.0539
 6 1 36.3454 20.9125 20.5555
 7 2 34.9459 20.343 18.5713
 8 3 37.652 21.2734 22.1838
 9 2 36.3265 19.7799 24.1632
 10 3 33.8903 19.1315 22.9346
 11 3 33.4041 19.2377 20.5612
 12 3 37.008 21.5362 19.9155
 13 3 37.4799 19.9673 24.3348
 14 3 36.0956 18.7693 24.5188
 15 3 35.7177 20.5413 24.8014
 16 3 35.7104 19.7515 17.9851
 17 3 34.8718 21.45 18.2774
 18 3 34.0327 19.7935 18.3855
ITEM: TIMESTEP
25
ITEM: NUMBER OF ATOMS
18
ITEM: BOX BOUNDS pp pp pp xy xz yz
0.345613 69.2426 2.32439e-15
1.46528 39.4254 -1.46795
6.49762 36.8707 1.95187e-15
ITEM: ATOMS id type xu yu zu
 1 1 36.7111 21.1018 22.0102
 2 1 35.8772 20.5072 22.926
 3 1 34.6512 19.9766 22.505
 4 1 34.3626 19.8521 21.1947
 5 1 35.2754 20.3668 20.2668
 6 1 36.3512 21.1611 20.6534
 7 2 35.0015 20.1901 18.8292
 8 3 37.6575 21.525 22.2935
 9 2 36.243 20.5383 24.413
 10 3 33.9602 19.6101 23.2646
 11 3 33.3987 19.3402 20.8466
 12 3 37.0249 21.5505 19.8727
 13 3 36.9283 19.6533 24.5009
 14 3 35.3812 20.318 25.1125
 15 3 36.7954 21.4393 24.7484
 16 3 35.8833 19.8646 18.2558
 17 3 34.5908 21.1261 18.3682
 18 3 34.1857 19.4679 18.4807
ITEM: TIMESTEP
26
ITEM: NUMBER OF ATOMS
18
ITEM: BOX BOUNDS pp pp pp xy xz yz
0.655817 69.5528 2.32439e-15
1.87223 39.8324 -1.46795
7.91342 38.2865 1.95187e-15
ITEM: ATOMS id type xu yu zu
 1 1 37.0169 21.544 23.4427
 2 1 36.2857 20.917 24.4342
 3 1 35.1341 20.2003 24.1
 4 1 34.7266 20.0767 22.8178
 5 1 35.5168 20.6467 21.7744
 6 1 36.7655 21.311 22.1268
 7 2 35.0337 20.6951 20.3468
 8 3 37.9205 22.1163 23.6985
 9 2 36.6567 21.2051 25.8848
 10 3 34.5817 19.7228 24.9158
 11 3 33.7561 19.5883 22.5925
 12 3 37.3569 21.7842 21.3476
 13 3 37.5027 21.8897 25.8727
 14 3 36.8408 20.2039 26.4279
 15 3 35.8626 21.8026 26.3322
 16 3 34.0243 20.4079 20.2992
 17 3 35.7036 20.0396 19.772
 18 3 35.1171 21.7081 19.988
ITEM: TIMESTEP
27
ITEM: NUMBER OF ATOMS
18
ITEM: BOX BOUNDS pp pp pp xy xz yz
0.383215 69.2802 2.32439e-15
1.67459 39.6347 -1.46795
8.21012 38.5832 1.95187e-15
ITEM: ATOMS id type xu yu zu
 1 1 36.6 21.5951 23.307
 2 1 36.2978 21.0752 24.5881
 3 1 35.2986 20.0823 24.7264
 4 1 34.479 19.6831 23.5591
 5 1 34.8337 20.1521 22.2946
 6 1 35.8729 21.1203 22.1575
 7 2 33.9731 19.8164 21.0607
 8 3 37.3539 22.3607 23.1818
 9 2 37.2096 21.4354 25.7136
 10 3 35.1118 19.6576 25.7775
 11 3 33.7294 18.8768 23.6383
 12 3 36.237 21.4607 21.1287
 13 3 38.0341 20.7174 25.7238
 14 3 36.6789 21.4362 26.6704
 15 3 37.5824 22.4325 25.5464
 16 3 33.421 20.7232 20.7219
 17 3 33.0973 19.1061 21.2287
 18 3 34.5428 19.6514 20.1229
ITEM: TIMESTEP
28
ITEM: NUMBER OF ATOMS
18
ITEM: BOX BOUNDS pp pp pp xy xz yz
0.856664 69.7537 2.32439e-15
1.29833 39.2585 -1.46795
7.15362 37.5267 1.95187e-15
ITEM: ATOMS id type xu yu zu
 1 1 37.2713 21.1908 22.4847
 2 1 36.6483 20.7666 23.6372
 3 1 35.5511 19.8069 23.5297
 4 1 34.9484 19.6107 22.293
 5 1 35.6022 19.9987 21.131
 6 1 36.7124 20.82 21.2374
 7 2 35.1348 19.5005 19.7424
 8 3 38.1205 21.9343 22.5238
 9 2 36.9785 21.3447 24.9792
 10 3 35.1439 19.2734 24.4062
 11 3 33.9578 19.0449 22.207
 12 3 37.1466 21.1974 20.3596
 13 3 35.9966 21.8101 25.228
 14 3 37.7192 22.1587 24.7542
 15 3 37.3884 20.5994 25.725
 16 3 33.997 19.5591 19.6935
 17 3 35.4806 18.3981 19.6051
 18 3 35.493 20.1487 18.9553
ITEM: TIMESTEP
29
ITEM: NUMBER OF ATOMS
18
ITEM: BOX BOUNDS pp pp pp xy xz yz
-0.257036 68.64 2.32439e-15
1.51233 39.4725 -1.46795
7.93372 38.3068 1.95187e-15
ITEM: ATOMS id type xu yu zu
 1 1 35.8863 21.5125 23.1494
 2 1 35.353 20.9509 24.3272
 3 1 34.2945 20.0669 24.3068
 4 1 33.7323 19.6929 23.07
 5 1 34.3704 20.0626 21.8716
 6 1 35.4076 21.0398 21.9361
 7 2 33.8157 19.6567 20.5753
 8 3 36.7064 22.2055 23.2331
 9 2 35.9882 21.3268 25.6257
 10 3 33.6673 19.9813 25.2142
 11 3 32.8092 19.077 23.0346
 12 3 35.8302 21.4107 20.9504
 13 3 35.984 22.3887 25.6056
 14 3 37.0417 21.0138 25.815
 15 3 35.3821 20.8863 26.4471
 16 3 33.4938 18.5961 20.4823
 17 3 34.5568 19.8243 19.7934
 18 3 32.9122 20.2878 20.4162
ITEM: TIMESTEP
30
ITEM: NUMBER OF ATOMS
18
ITEM: BOX BOUNDS pp pp pp xy xz yz
0.875063 69.7721 2.32439e-15
1.52973 39.4899 -1.46795
7.20502 37.5781 1.95187e-15
ITEM: ATOMS id type xu yu zu
 1 1 37.2412 21.287 22.7094
 2 1 36.4044 20.7801 23.7043
 3 1 35.1636 20.3448 23.3939
 4 1 34.7761 20.1576 22.04
 5 1 35.5885 20.6004 21.0388
 6 1 36.7977 21.3266 21.4174
 7 2 35.2779 20.3289 19.6422
 8 3 38.1837 21.8027 23.0214
 9 2 36.7386 21.0392 25.1415
 10 3 34.4949 19.9894 24.2376
 11 3 33.9314 19.5244 21.8196
 12 3 37.4459 21.7491 20.6626
 13 3 36.0153 21.7456 25.5583
 14 3 37.77 21.4835 25.225
 15 3 36.7212 20.2088 25.8298
 16 3 34.275 20.6706 19.4049
 17 3 35.3518 19.2169 19.3747
 18 3 35.9647 20.9334 18.9533
ITEM: TIMESTEP
31
ITEM: NUMBER OF ATOMS
18
ITEM: BOX BOUNDS pp pp pp xy xz yz
0.257314 69.1543 2.32439e-15
1.40043 39.3606 -1.46795
7.73627 38.1093 1.95187e-15
ITEM: ATOMS id type xu yu zu
 1 1 36.7983 21.1572 22.9815
 2 1 36.2148 20.7082 24.1619
 3 1 35.1043 19.8579 24.0946
 4 1 34.4362 19.6949 22.8713
 5 1 34.8781 20.2814 21.6821
 6 1 36.0667 20.9888 21.7148
 7 2 34.1335 19.9533 20.4296
 8 3 37.7251 21.7842 23.0501
 9 2 36.6587 21.2522 25.5609
 10 3 34.7844 19.3217 24.9676
 11 3 33.46 19.1357 22.9153
 12 3 36.5017 21.3625 20.7907
 13 3 35.7899 21.7704 25.9548
 14 3 37.5599 21.9226 25.4896
 15 3 36.844 20.4 26.2651
 16 3 34.7306 20.2594 19.5805
 17 3 33.1545 20.523 20.2938
 18 3 33.8096 18.8384 20.4209
ITEM: TIMESTEP
32
ITEM: NUMBER OF ATOMS
18
ITEM: BOX BOUNDS pp pp pp xy xz yz
0.733415 69.6304 2.32439e-15
1.15588 39.116 -1.46795
7.69717 38.0702 1.95187e-15
ITEM: ATOMS id type xu yu zu
 1 1 37.0961 21.0408 22.9822
 2 1 36.4095 20.5399 24.1177
 3 1 35.288 19.6518 23.9477
 4 1 34.8122 19.4002 22.6606
 5 1 35.5421 19.7887 21.5461
 6 1 36.6801 20.6358 21.7055
 7 2 35.0621 19.3107 20.1979
 8 3 37.988 21.6402 23.0611
 9 2 36.9112 20.8879 25.5436
 10 3 34.7951 19.1224 24.8387
 11 3 33.8237 19.0041 22.5113
 12 3 37.2259 21.0549 20.821
 13 3 36.5767 21.9081 25.7781
 14 3 38.0081 20.8557 25.5967
 15 3 36.4427 20.1738 26.2964
 16 3 35.7445 19.3558 19.471
 17 3 34.3179 20.0819 19.8225
 18 3 34.5146 18.3638 20.2239
ITEM: TIMESTEP
33
ITEM: NUMBER OF ATOMS
18
ITEM: BOX BOUNDS pp pp pp xy xz yz
-0.155035 68.742 2.32439e-15
1.80698 39.7671 -1.46795
7.98532 38.3584 1.95187e-15
ITEM: ATOMS id type xu yu zu
 1 1 36.3328 21.584 23.0764
 2 1 35.7015 21.2234 24.3108
 3 1 34.6246 20.3581 24.2913
 4 1 34.021 20.0274 23.1308
 5 1 34.3743 20.5913 21.9284
 6 1 35.5811 21.3598 21.8706
 7 2 33.6638 20.127 20.6973
 8 3 37.3329 22.0796 23.0442
 9 2 36.3258 21.6131 25.6146
 10 3 34.3528 19.8582 25.214
 11 3 33.2002 19.2852 23.1373
 12 3 36.0327 21.5412 20.8902
 13 3 35.5508 22.2035 26.2306
 14 3 37.2031 22.2889 25.4686
 15 3 36.6457 20.6946 26.1591
 16 3 33.5218 20.9996 20.1131
 17 3 32.722 19.7279 20.897
 18 3 34.293 19.349 20.2306
ITEM: TIMESTEP
34
ITEM: NUMBER OF ATOMS
18
ITEM: BOX BOUNDS pp pp pp xy xz yz
0.590662 69.4877 2.32439e-15
1.46578 39.4259 -1.46795
7.36707 37.7401 1.95187e-15
ITEM: ATOMS id type xu yu zu
 1 1 36.5957 21.4219 22.2724
 2 1 36.31 20.9034 23.524
 3 1 35.2497 20.0411 23.696
 4 1 34.4748 19.6801 22.619
 5 1 34.796 20.0905 21.31
 6 1 35.8447 21.0055 21.1416
 7 2 34.1903 19.4028 20.1472
 8 3 37.517 22.0147 22.1345
 9 2 36.9929 21.4029 24.7511
 10 3 35.0487 19.6633 24.7046
 11 3 33.6673 19.0171 22.7986
 12 3 36.0784 21.4818 20.1316
 13 3 36.4716 22.3243 25.1293
 14 3 38.069 21.5327 24.5751
 15 3 36.9917 20.6558 25.627
 16 3 34.9317 19.056 19.4802
 17 3 33.4773 20.0361 19.5832
 18 3 33.6055 18.5674 20.4718
ITEM: TIMESTEP
35
ITEM: NUMBER OF ATOMS
18
ITEM: BOX BOUNDS pp pp pp xy xz yz
0.719415 69.6164 2.32439e-15
1.99708 39.9572 -1.46795
7.49842 37.8715 1.95187e-15
ITEM: ATOMS id type xu yu zu
 1 1 37.2096 21.3068 23.0301
 2 1 36.4065 20.7264 24.0698
 3 1 35.1418 20.2109 23.7572
 4 1 34.622 20.383 22.5034
 5 1 35.3941 21.0109 21.4078
 6 1 36.68 21.5008 21.7274
 7 2 34.7853 21.2993 20.0625
 8 3 38.1511 21.8581 23.2646
 9 2 36.7337 20.9517 25.5445
 10 3 34.5547 19.6498 24.5107
 11 3 33.6527 19.8459 22.2947
 12 3 37.1863 22.1594 21.0687
 13 3 36.0441 21.6882 25.9181
 14 3 37.7892 21.3067 25.619
 15 3 36.4745 20.0173 26.1023
 16 3 35.5423 21.0131 19.2676
 17 3 34.398 22.3045 20.0621
 18 3 33.8397 20.6027 19.8451
ITEM: TIMESTEP
36
ITEM: NUMBER OF ATOMS
18
ITEM: BOX BOUNDS pp pp pp xy xz yz
0.249666 69.1467 2.32439e-15
1.46078 39.4209 -1.46795
7.88457 38.2576 1.95187e-15
ITEM: ATOMS id type xu yu zu
 1 1 36.7012 21.1808 23.142
 2 1 36.0688 20.7926 24.354
 3 1 34.9912 19.8983 24.3185
 4 1 34.4652 19.5655 23.0601
 5 1 35.085 19.9295 21.8528
 6 1 36.231 20.7152 21.9286
 7 2 34.4229 19.7729 20.5573
 8 3 37.5066 21.8904 23.172
 9 2 36.4314 21.4821 25.6247
 10 3 34.4596 19.5736 25.2502
 11 3 33.4584 19.1253 22.9839
 12 3 36.6323 21.1743 20.9898
 13 3 36.7429 20.7801 26.391
 14 3 35.5342 22.053 26.001
 15 3 37.3071 22.1625 25.5083
 16 3 33.3577 20.1198 20.6121
 17 3 34.198 18.7192 20.2829
 18 3 35.0318 20.139 19.7512
ITEM: TIMESTEP
37
ITEM: NUMBER OF ATOMS
18
ITEM: BOX BOUNDS pp pp pp xy xz yz
0.188966 69.086 2.32439e-15
1.45283 39.413 -1.46795
7.69986 38.0729 1.95187e-15
ITEM: ATOMS id type xu yu zu
 1 1 36.6174 20.9512 22.9426
 2 1 35.8992 20.8041 24.14
 3 1 34.6899 20.1542 24.1536
 4 1 34.195 19.6382 22.9112
 5 1 34.8887 19.8426 21.6976
 6 1 36.1138 20.4957 21.764
 7 2 34.2366 19.594 20.3661
 8 3 37.609 21.4612 22.9932
 9 2 36.5276 21.3156 25.3698
 10 3 34.1882 19.9041 25.1207
 11 3 33.2062 19.1527 22.8889
 12 3 36.6909 20.6537 20.8622
 13 3 37.0489 20.5105 25.9444
 14 3 35.6938 21.7312 25.9777
 15 3 37.241 22.1865 25.1775
 16 3 34.7211 18.6793 19.9206
 17 3 34.1953 20.5953 19.7951
 18 3 33.1339 19.3585 20.4395
ITEM: TIMESTEP
38
ITEM: NUMBER OF ATOMS
18
ITEM: BOX BOUNDS pp pp pp xy xz yz
0.0681627 68.9652 2.32439e-15
1.42138 39.3815 -1.46795
7.25917 37.6322 1.95187e-15
ITEM: ATOMS id type xu yu zu
 1 1 36.4881 21.1395 22.5847
 2 1 35.911 20.5122 23.6289
 3 1 34.7533 19.6916 23.4353
 4 1 34.1534 19.6593 22.1285
 5 1 34.7551 20.3275 21.0613
 6 1 35.9456 21.0484 21.2837
 7 2 34.1806 20.1873 19.6426
 8 3 37.3582 21.8085 22.7778
 9 2 36.3488 20.8834 25.0648
 10 3 34.3041 19.1125 24.28
 11 3 33.2852 18.9944 21.9878
 12 3 36.4968 21.5057 20.4395
 13 3 36.3487 19.9795 25.7529
 14 3 35.5643 21.5573 25.4956
 15 3 37.3295 21.3917 25.065
 16 3 33.1431 19.8396 19.6039
 17 3 34.721 19.3356 19.1385
 18 3 34.3195 21.1093 19.1422
ITEM: TIMESTEP
39
ITEM: NUMBER OF ATOMS
18
ITEM: BOX BOUNDS pp pp pp xy xz yz
0.420416 69.3174 2.32439e-15
1.25583 39.216 -1.46795
6.98412 37.3572 1.95187e-15
ITEM: ATOMS id type xu yu zu
 1 1 36.9123 20.6244 22.681
 2 1 35.9257 20.1595 23.5477
 3 1 34.6687 19.8423 23.041
 4 1 34.3272 20.1485 21.7225
 5 1 35.3358 20.4688 20.8089
 6 1 36.6326 20.7107 21.3403
 7 2 35.0966 20.3487 19.3151
 8 3 37.9313 20.8041 23.0452
 9 2 36.1665 20.3775 25.034
 10 3 33.8903 19.5401 23.708
 11 3 33.2745 20.1478 21.44
 12 3 37.4555 20.8502 20.5919
 13 3 36.0185 19.4261 25.5838
 14 3 35.3728 21.1483 25.4108
 15 3 37.1791 20.7807 25.2557
 16 3 34.7709 19.3235 19.0857
 17 3 36.0537 20.5819 18.7575
 18 3 34.3701 21.0143 19.0616
ITEM: TIMESTEP
40
ITEM: NUMBER OF ATOMS
18
ITEM: BOX BOUNDS pp pp pp xy xz yz
0.612116 69.5091 2.32439e-15
1.63788 39.598 -1.46795
7.46482 37.8379 1.95187e-15
ITEM: ATOMS id type xu yu zu
 1 1 37.1205 21.3039 22.569
 2 1 36.6187 20.8334 23.7589
 3 1 35.5265 19.9102 23.775
 4 1 34.798 19.7042 22.5715
 5 1 35.1356 20.4286 21.4322
 6 1 36.325 21.2676 21.4348
 7 2 34.4335 20.2165 20.1417
 8 3 38.1359 21.7864 22.5973
 9 2 37.2339 21.3463 25.0524
 10 3 35.1958 19.4284 24.7169
 11 3 33.9941 18.978 22.5067
 12 3 36.5832 21.8061 20.5482
 13 3 37.1487 20.5591 25.8149
 14 3 36.6372 22.2579 25.3886
 15 3 38.3081 21.5762 24.897
 16 3 33.2811 20.0105 20.3043
 17 3 34.9514 19.4574 19.4878
 18 3 34.3486 21.1955 19.5716
ITEM: TIMESTEP
41
ITEM: NUMBER OF ATOMS
18
ITEM: BOX BOUNDS pp pp pp xy xz yz
0.733965 69.631 2.32439e-15
1.49623 39.4564 -1.46795
7.81827 38.1913 1.95187e-15
ITEM: ATOMS id type xu yu zu
 1 1 37.1711 21.016 22.9412
 2 1 36.5317 20.7775 24.1561
 3 1 35.2772 20.0735 24.1699
 4 1 34.7165 19.5949 22.974
 5 1 35.3703 19.9033 21.7752
 6 1 36.5411 20.6558 21.7714
 7 2 34.7209 19.4283 20.4921
 8 3 38.046 21.6018 22.8936
 9 2 37.0686 21.5046 25.3718
 10 3 34.7912 19.9012 25.1476
 11 3 33.9338 18.806 22.9921
 12 3 36.99 20.9952 20.8327
 13 3 38.1631 21.2672 25.5144
 14 3 36.508 21.2352 26.2607
 15 3 36.9344 22.5816 25.2095
 16 3 35.1614 19.9865 19.7489
 17 3 33.6698 19.5897 20.4694
 18 3 34.9738 18.371 20.1732
ITEM: TIMESTEP
42
ITEM: NUMBER OF ATOMS
18