ITEM: TIMESTEP
0
ITEM: NUMBER OF ATOMS
18
ITEM: BOX BOUNDS pp pp pp xy xz yz
7.16666 77.1833 2.36216e-15
4.60263 43.1797 -1.49181
-7.29097 23.5757 1.98359e-15
ITEM: ATOMS id type xu yu zu
 1 1 44.0859 25.0261 6.45588
 2 1 42.9421 24.8146 5.70474
 3 1 41.7493 24.4892 6.28899
 4 1 41.6928 24.2773 7.68457
 5 1 42.8812 24.461 8.4718
 6 1 44.1137 24.8062 7.84019
 7 2 42.8015 24.4451 9.95449
 8 2 43.7426 23.3956 10.5224
 9 3 44.9524 25.3365 5.92868
 10 3 43.0201 24.9348 4.65593
 11 3 40.9089 24.2514 5.69695
 12 3 40.7909 24.1961 8.22986
 13 3 45.0509 24.9536 8.46272
 14 3 41.8069 24.1805 10.2636
 15 3 43.7294 23.279 11.6288
 16 3 44.781 23.6714 10.2964
 17 3 43.1973 25.3922 10.3983
 18 3 43.5008 22.3901 10.1131
ITEM: TIMESTEP
1
ITEM: NUMBER OF ATOMS
18
ITEM: BOX BOUNDS pp pp pp xy xz yz
7.13695 77.1536 2.36216e-15
4.78248 43.3595 -1.49181
-7.78333 23.0833 1.98359e-15
ITEM: ATOMS id type xu yu zu
 1 1 43.4513 24.7797 5.8004
 2 1 42.203 24.1632 5.50701
 3 1 41.4074 23.6574 6.49888
 4 1 41.8303 23.7157 7.8395
 5 1 42.9116 24.53 8.15341
 6 1 43.6674 25.1228 7.14973
 7 2 43.3582 24.5412 9.56328
 8 2 44.4163 23.4819 9.76461
 9 3 44.1359 25.154 5.02335
 10 3 41.785 24.1868 4.4391
 11 3 40.4455 23.2792 6.22015
 12 3 41.2321 23.3156 8.62355
 13 3 44.5688 25.6575 7.38279
 14 3 42.4593 24.2713 10.0978
 15 3 44.6613 23.5524 10.8609
 16 3 45.3369 23.633 9.16315
 17 3 43.7585 25.5155 9.79265
 18 3 44.0056 22.4845 9.45297
ITEM: TIMESTEP
2
ITEM: NUMBER OF ATOMS
18
ITEM: BOX BOUNDS pp pp pp xy xz yz
7.70666 77.7233 2.36216e-15
4.82703 43.4041 -1.49181
-8.08966 22.777 1.98359e-15
ITEM: ATOMS id type xu yu zu
 1 1 44.5115 25.1232 5.60388
 2 1 43.2108 25.22 5.1169
 3 1 42.1381 24.9776 6.03874
 4 1 42.4265 24.6531 7.37679
 5 1 43.6898 24.9584 7.91219
 6 1 44.7727 25.2057 7.01436
 7 2 43.9291 24.6986 9.40155
 8 2 44.6988 23.4211 9.52898
 9 3 45.3392 25.3009 4.92613
 10 3 42.9986 25.5473 4.02734
 11 3 41.073 25.0552 5.68345
 12 3 41.6031 24.3956 8.07883
 13 3 45.8488 25.4036 7.31425
 14 3 43.0311 24.6271 9.97375
 15 3 44.1069 22.6409 9.08979
 16 3 44.8772 23.3906 10.66
 17 3 44.4909 25.5902 9.85268
 18 3 45.7618 23.4432 9.12286
ITEM: TIMESTEP
3
ITEM: NUMBER OF ATOMS
18
ITEM: BOX BOUNDS pp pp pp xy xz yz
7.09251 77.1092 2.36216e-15
4.85943 43.4365 -1.49181
-8.03787 22.8288 1.98359e-15
ITEM: ATOMS id type xu yu zu
 1 1 42.6078 25.1424 5.59538
 2 1 41.2911 24.608 5.6412
 3 1 40.9764 23.7119 6.66612
 4 1 41.7437 23.7799 7.84208
 5 1 42.8678 24.5703 7.90091
 6 1 43.3968 25.1205 6.73304
 7 2 43.6352 24.6731 9.19742
 8 2 44.7538 23.6411 9.12457
 9 3 42.9483 25.6655 4.71533
 10 3 40.5717 24.7933 4.85478
 11 3 40.0996 23.1242 6.6119
 12 3 41.4989 23.1318 8.66124
 13 3 44.4443 25.4732 6.71077
 14 3 42.8893 24.463 10.0327
 15 3 45.5939 23.8304 8.32827
 16 3 44.3036 22.6003 8.92571
 17 3 44.0483 25.6956 9.17145
 18 3 45.1739 23.5423 10.0756
ITEM: TIMESTEP
4
ITEM: NUMBER OF ATOMS
18
ITEM: BOX BOUNDS pp pp pp xy xz yz
7.30531 77.322 2.36216e-15
4.84878 43.4258 -1.49181
-7.16343 23.7032 1.98359e-15
ITEM: ATOMS id type xu yu zu
 1 1 42.6274 24.6346 6.51477
 2 1 41.3066 24.5646 6.9483
 3 1 41.0514 24.4625 8.29391
 4 1 42.0721 24.695 9.2459
 5 1 43.4176 24.649 8.79912
 6 1 43.6995 24.4408 7.40756
 7 2 44.5731 24.7978 9.81997
 8 2 45.1347 23.4899 10.3854
 9 3 42.7892 24.8036 5.45531
 10 3 40.5539 24.5218 6.2687
 11 3 40.0876 24.259 8.65046
 12 3 41.8199 24.9389 10.2764
 13 3 44.7295 24.3034 7.10309
 14 3 44.1575 25.3809 10.7029
 15 3 46.0315 23.7561 11.0845
 16 3 45.4287 22.8937 9.52587
 17 3 45.3566 25.3809 9.38278
 18 3 44.3811 23.0006 10.9891
ITEM: TIMESTEP
5
ITEM: NUMBER OF ATOMS
18
ITEM: BOX BOUNDS pp pp pp xy xz yz
8.17956 78.1962 2.36216e-15
4.42608 43.0031 -1.49181
-7.56655 23.3001 1.98359e-15
ITEM: ATOMS id type xu yu zu
 1 1 45.2555 24.8926 6.53206
 2 1 44.4199 24.5972 5.4759
 3 1 43.2027 24.0147 5.71594
 4 1 42.6979 23.865 7.00511
 5 1 43.5046 24.2939 8.10597
 6 1 44.8674 24.571 7.81313
 7 2 43.0531 24.1296 9.5049
 8 2 43.4687 22.8191 10.1308
 9 3 46.1346 25.4835 6.36483
 10 3 44.6547 24.9605 4.49376
 11 3 42.5256 23.708 4.86489
 12 3 41.733 23.3591 7.17013
 13 3 45.6021 24.565 8.63293
 14 3 41.9538 24.1567 9.53997
 15 3 43.1855 22.6948 11.2398
 16 3 44.6489 22.8248 10.1873
 17 3 43.5865 24.9045 10.04
 18 3 42.987 21.9457 9.57616
ITEM: TIMESTEP
6
ITEM: NUMBER OF ATOMS
18
ITEM: BOX BOUNDS pp pp pp xy xz yz
6.30696 76.3236 2.36216e-15
4.58068 43.1577 -1.49181
-8.01752 22.8491 1.98359e-15
ITEM: ATOMS id type xu yu zu
 1 1 43.0174 25.0481 5.8101
 2 1 42.1191 24.2087 5.18701
 3 1 40.883 23.864 5.88355
 4 1 40.8383 23.9894 7.29556
 5 1 41.9215 24.6099 7.98549
 6 1 42.9797 25.1892 7.19211
 7 2 42.2125 24.3167 9.43492
 8 2 43.256 23.2548 9.61328
 9 3 43.8288 25.4682 5.26173
 10 3 42.2814 23.9862 4.09372
 11 3 39.9931 23.5635 5.36454
 12 3 40.0551 23.5396 7.86931
 13 3 43.9199 25.4987 7.63748
 14 3 41.2152 23.9554 9.90469
 15 3 43.2959 23.2117 10.7379
 16 3 44.1293 23.5382 9.20739
 17 3 42.6014 25.2637 9.97612
 18 3 42.9976 22.2397 9.21278
ITEM: TIMESTEP
7
ITEM: NUMBER OF ATOMS
18
ITEM: BOX BOUNDS pp pp pp xy xz yz
7.61471 77.6314 2.36216e-15
4.62953 43.2066 -1.49181
-5.63468 25.232 1.98359e-15
ITEM: ATOMS id type xu yu zu
 1 1 44.614 24.6145 8.18822
 2 1 43.5065 24.5372 7.31012
 3 1 42.2335 24.3211 7.78334
 4 1 42.0418 24.2152 9.11722
 5 1 43.1261 24.4856 10.0431
 6 1 44.3635 24.6757 9.55768
 7 2 42.8969 24.4468 11.5657
 8 2 43.6811 23.3371 12.3281
 9 3 45.6217 24.9247 7.79805
 10 3 43.6509 24.495 6.2191
 11 3 41.4567 24.2809 7.10368
 12 3 41.1162 23.8785 9.4847
 13 3 45.1711 24.9681 10.1375
 14 3 41.769 24.33 11.8007
 15 3 43.511 23.2019 13.3782
 16 3 44.7399 23.4834 12.3181
 17 3 43.0878 25.4794 11.9699
 18 3 43.5653 22.3567 11.8098
ITEM: TIMESTEP
8
ITEM: NUMBER OF ATOMS
18
ITEM: BOX BOUNDS pp pp pp xy xz yz
8.17716 78.1938 2.36216e-15
4.56928 43.1463 -1.49181
-5.92776 24.9389 1.98359e-15
ITEM: ATOMS id type xu yu zu
 1 1 45.2611 25.0375 8.09767
 2 1 44.1538 24.8887 7.15845
 3 1 42.9116 24.5826 7.64029
 4 1 42.6974 24.3132 9.00028
 5 1 43.7303 24.4528 9.92087
 6 1 45.0231 24.8927 9.45391
 7 2 43.5248 24.2591 11.3731
 8 2 44.2297 23.0152 11.9415
 9 3 46.1458 25.5519 7.73636
 10 3 44.3392 25.0149 6.14995
 11 3 42.0579 24.6624 6.96523
 12 3 41.717 24.0281 9.29139
 13 3 45.8772 25.1367 10.1658
 14 3 42.4457 24.23 11.6477
 15 3 43.6342 22.78 12.8612
 16 3 45.3452 23.1202 12.0715
 17 3 43.9445 25.0233 11.9186
 18 3 44.1841 22.1637 11.2424
ITEM: TIMESTEP
9
ITEM: NUMBER OF ATOMS
18
ITEM: BOX BOUNDS pp pp pp xy xz yz
7.21781 77.2345 2.36216e-15
5.15388 43.7309 -1.49181
-5.54791 25.3188 1.98359e-15
ITEM: ATOMS id type xu yu zu
 1 1 44.0826 25.3687 8.07598
 2 1 42.996 24.7814 7.42692
 3 1 41.8621 24.3703 8.16242
 4 1 41.9441 24.4608 9.60773
 5 1 43.1052 24.8623 10.2936
 6 1 44.2104 25.2973 9.50884
 7 2 43.0332 25 11.7831
 8 2 43.9981 23.9769 12.3331
 9 3 44.8843 25.8547 7.50439
 10 3 42.9907 24.6287 6.33334
 11 3 40.9416 24.154 7.66602
 12 3 41.0806 24.2427 10.1691
 13 3 45.0025 25.7951 10.0068
 14 3 42.0177 24.8361 12.1707
 15 3 43.6227 22.9441 12.0158
 16 3 44.1685 24.0218 13.4375
 17 3 43.3938 25.9407 12.1575
 18 3 44.9938 24.3351 11.8026
ITEM: TIMESTEP
10
ITEM: NUMBER OF ATOMS
18
ITEM: BOX BOUNDS pp pp pp xy xz yz
7.99386 78.0105 2.36216e-15
5.36418 43.9412 -1.49181
-7.29604 23.5706 1.98359e-15
ITEM: ATOMS id type xu yu zu
 1 1 44.6406 25.2192 6.18325
 2 1 43.3673 24.9662 5.75402
 3 1 42.3371 24.8967 6.70905
 4 1 42.7059 24.8945 8.07202
 5 1 44.0256 25.1725 8.54702
 6 1 45.028 25.2017 7.56684
 7 2 44.3655 25.2509 10.006
 8 2 45.0009 23.9942 10.5508
 9 3 45.4527 25.2317 5.441
 10 3 43.1455 24.8732 4.65629
 11 3 41.4138 24.4107 6.47024
 12 3 41.8983 24.6107 8.77894
 13 3 46.0824 25.256 7.8707
 14 3 43.4732 25.4384 10.626
 15 3 44.2005 23.217 10.5014
 16 3 45.3162 23.9448 11.6183
 17 3 45.0653 26.0884 10.1408
 18 3 45.8584 23.8174 9.87528
ITEM: TIMESTEP
11
ITEM: NUMBER OF ATOMS
18
ITEM: BOX BOUNDS pp pp pp xy xz yz
7.6672 77.6839 2.36216e-15
5.04303 43.6201 -1.49181
-7.44342 23.4232 1.98359e-15
ITEM: ATOMS id type xu yu zu
 1 1 43.901 25.22 6.15252
 2 1 42.6917 24.548 5.83112
 3 1 41.8904 24.0319 6.87047
 4 1 42.3427 23.9499 8.18912
 5 1 43.5995 24.5402 8.53358
 6 1 44.2336 25.3471 7.50371
 7 2 44.0819 24.5766 9.95402
 8 2 45.2587 23.6576 10.143
 9 3 44.4485 25.7561 5.34857
 10 3 42.2868 24.5778 4.85192
 11 3 40.8192 23.8776 6.65723
 12 3 41.6846 23.5166 8.91073
 13 3 45.0429 26.061 7.81513
 14 3 43.246 24.2901 10.6141
 15 3 44.926 22.6021 10.0089
 16 3 45.7139 23.767 11.1279
 17 3 44.3439 25.6166 10.357
 18 3 46.0237 23.8846 9.43196
ITEM: TIMESTEP
12
ITEM: NUMBER OF ATOMS
18
ITEM: BOX BOUNDS pp pp pp xy xz yz
6.96821 76.9849 2.36216e-15
5.48358 44.0606 -1.49181
-8.57719 22.2895 1.98359e-15
ITEM: ATOMS id type xu yu zu
 1 1 42.768 25.7813 5.25538
 2 1 41.893 24.8877 4.66137
 3 1 41.1511 24.0189 5.5335
 4 1 41.4889 23.9037 6.82753
 5 1 42.5496 24.6254 7.33269
 6 1 43.1627 25.5913 6.57657
 7 2 42.9282 24.3383 8.74456
 8 2 44.4008 24.0049 8.96416
 9 3 43.35 26.4517 4.62222
 10 3 41.5039 25.1436 3.72626
 11 3 40.3707 23.3892 5.11437
 12 3 41.1314 23.0925 7.41114
 13 3 44.0123 26.1344 6.94693
 14 3 42.3785 23.5538 9.3195
 15 3 44.6227 23.1569 8.28693
 16 3 44.5406 23.5984 9.98603
 17 3 42.7613 25.2913 9.29649
 18 3 45.0742 24.9222 8.83043
ITEM: TIMESTEP
13
ITEM: NUMBER OF ATOMS
18
ITEM: BOX BOUNDS pp pp pp xy xz yz
6.99076 77.0074 2.36216e-15
4.80938 43.3864 -1.49181
-7.18843 23.6782 1.98359e-15
ITEM: ATOMS id type xu yu zu
 1 1 43.9088 25.0007 6.65569
 2 1 42.8134 24.7186 5.84061
 3 1 41.6547 24.1843 6.34012
 4 1 41.5029 24.1056 7.75558
 5 1 42.6959 24.2218 8.56683
 6 1 43.8355 24.7695 8.01119
 7 2 42.5702 24.161 10.1177
 8 2 43.8124 23.4219 10.6731
 9 3 44.7919 25.6612 6.28531
 10 3 42.8222 24.9651 4.75861
 11 3 40.9182 23.7577 5.71256
 12 3 40.6981 23.4811 8.12375
 13 3 44.6797 24.9435 8.67535
 14 3 41.5721 23.7578 10.3814
 15 3 44.1122 22.5346 10.1071
 16 3 43.5575 23.1037 11.7312
 17 3 42.5673 25.1385 10.5992
 18 3 44.7151 24.1017 10.7432
ITEM: TIMESTEP
14
ITEM: NUMBER OF ATOMS
18
ITEM: BOX BOUNDS pp pp pp xy xz yz
7.33091 77.3476 2.36216e-15
4.75398 43.331 -1.49181
-7.28558 23.5811 1.98359e-15
ITEM: ATOMS id type xu yu zu
 1 1 43.154 24.8817 6.25972
 2 1 41.8307 24.3902 6.39406
 3 1 41.3359 24.0306 7.61345
 4 1 42.1664 24.0636 8.73785
 5 1 43.4817 24.6452 8.60329
 6 1 43.9559 25.0497 7.38197
 7 2 44.4189 24.7089 9.76685
 8 2 45.0671 23.3488 10.0164
 9 3 43.6495 24.9638 5.24051
 10 3 41.1642 24.3338 5.5373
 11 3 40.3014 23.811 7.69544
 12 3 41.8181 23.7235 9.66229
 13 3 44.9663 25.5533 7.36755
 14 3 43.8031 24.941 10.6689
 15 3 44.338 22.5317 10.0052
 16 3 45.5144 23.37 11.055
 17 3 45.1956 25.487 9.58663
 18 3 45.8689 23.2733 9.40482
ITEM: TIMESTEP
15
ITEM: NUMBER OF ATOMS
18
ITEM: BOX BOUNDS pp pp pp xy xz yz
8.07306 78.0897 2.36216e-15
4.94918 43.5262 -1.49181
-6.10721 24.7595 1.98359e-15
ITEM: ATOMS id type xu yu zu
 1 1 45.2101 25.2271 7.90649
 2 1 44.316 25.1845 6.86057
 3 1 42.9274 24.9419 7.07771
 4 1 42.4736 24.8535 8.39848
 5 1 43.3348 24.8 9.45641
 6 1 44.7183 25.0625 9.23355
 7 2 42.8083 24.7484 10.9353
 8 2 43.5562 23.6749 11.8101
 9 3 46.202 25.5478 7.71864
 10 3 44.7037 25.3442 5.90604
 11 3 42.3101 24.5901 6.22586
 12 3 41.4526 24.7785 8.52829
 13 3 45.4494 25.236 10.0981
 14 3 41.732 24.5128 11.0074
 15 3 43.3602 22.681 11.4104
 16 3 43.0342 23.7307 12.7462
 17 3 43.0436 25.7944 11.3185
 18 3 44.5707 23.9162 11.9906
ITEM: TIMESTEP
16
ITEM: NUMBER OF ATOMS
18
ITEM: BOX BOUNDS pp pp pp xy xz yz
7.78386 77.8005 2.36216e-15
4.93388 43.5109 -1.49181
-5.41775 25.4489 1.98359e-15
ITEM: ATOMS id type xu yu zu
 1 1 44.7941 25.2163 8.36065
 2 1 43.7088 24.7208 7.5971
 3 1 42.6509 24.0683 8.1877
 4 1 42.4905 24.1418 9.58364
 5 1 43.5221 24.7007 10.3903
 6 1 44.6656 25.1989 9.77395
 7 2 43.3007 24.8761 11.8541
 8 2 43.7059 23.5922 12.5473
 9 3 45.5489 25.8004 7.94613
 10 3 43.6672 24.9479 6.49866
 11 3 41.8276 23.8308 7.57104
 12 3 41.5273 23.8296 10.0316
 13 3 45.5366 25.5184 10.3377
 14 3 42.2096 25.1905 12.1049
 15 3 43.4976 22.6444 11.9779
 16 3 43.1394 23.4975 13.5325
 17 3 43.7929 25.7223 12.1989
 18 3 44.8324 23.6042 12.7208
ITEM: TIMESTEP
17
ITEM: NUMBER OF ATOMS
18
ITEM: BOX BOUNDS pp pp pp xy xz yz
8.00411 78.0208 2.36216e-15
5.06253 43.6396 -1.49181
-5.9619 24.9048 1.98359e-15
ITEM: ATOMS id type xu yu zu
 1 1 44.8564 25.3554 7.77257
 2 1 43.8365 24.8894 6.8997
 3 1 42.67 24.4786 7.49519
 4 1 42.5562 24.3133 8.86833
 5 1 43.5521 24.7308 9.69446
 6 1 44.6807 25.3525 9.11714
 7 2 43.3629 24.8448 11.1854
 8 2 44.2022 23.9328 12.0249
 9 3 45.8128 25.5912 7.3708
 10 3 43.928 24.9187 5.81277
 11 3 41.8353 24.0709 6.87658
 12 3 41.7039 23.7827 9.30903
 13 3 45.4462 25.672 9.76742
 14 3 42.3481 24.6129 11.4512
 15 3 43.8974 22.8471 11.8025
 16 3 43.9702 24.1355 13.1301
 17 3 43.5822 25.855 11.505
 18 3 45.2312 24.1985 11.9077
ITEM: TIMESTEP
18
ITEM: NUMBER OF ATOMS
18
ITEM: BOX BOUNDS pp pp pp xy xz yz
8.16426 78.1809 2.36216e-15
4.79213 43.3692 -1.49181
-5.25712 25.6095 1.98359e-15
ITEM: ATOMS id type xu yu zu
 1 1 45.1866 25.0972 8.41047
 2 1 44.1646 24.7352 7.57452
 3 1 42.9056 24.333 8.11264
 4 1 42.7458 24.293 9.49324
 5 1 43.8774 24.4688 10.3128
 6 1 45.0315 24.9741 9.81744
 7 2 43.6518 24.4918 11.8325
 8 2 44.5425 23.5591 12.6892
 9 3 46.1157 25.5393 7.99046
 10 3 44.1705 25.0223 6.58933
 11 3 42.0319 24.0957 7.44881
 12 3 41.7213 24.1777 9.85617
 13 3 45.7843 25.3495 10.4198
 14 3 42.5346 24.3922 12.1118
 15 3 44.0615 22.622 12.6731
 16 3 44.5615 23.8286 13.7631
 17 3 43.9247 25.5021 12.1082
 18 3 45.6234 23.5207 12.3406
ITEM: TIMESTEP
19
ITEM: NUMBER OF ATOMS
18
ITEM: BOX BOUNDS pp pp pp xy xz yz
7.55201 77.5687 2.36216e-15
4.50528 43.0823 -1.49181
-6.68092 24.1857 1.98359e-15
ITEM: ATOMS id type xu yu zu
 1 1 44.4637 24.007 6.89457
 2 1 43.2699 24.0744 6.22525
 3 1 42.0387 23.9967 6.94387
 4 1 42.0634 24.2221 8.31648
 5 1 43.338 24.2624 9.00995
 6 1 44.5239 24.3457 8.26216
 7 2 43.3728 24.4222 10.5169
 8 2 43.985 23.2898 11.3128
 9 3 45.3524 23.8374 6.33228
 10 3 43.2949 24.1042 5.12342
 11 3 41.1539 23.9648 6.40127
 12 3 41.1796 24.0383 8.91618
 13 3 45.4586 24.4748 8.88766
 14 3 42.3435 24.5383 10.9071
 15 3 43.6552 22.2293 11.0791
 16 3 43.7544 23.4282 12.3814
 17 3 43.8966 25.3583 10.7343
 18 3 45.0943 23.3157 11.1389
ITEM: TIMESTEP
20
ITEM: NUMBER OF ATOMS
18
ITEM: BOX BOUNDS pp pp pp xy xz yz
8.05481 78.0715 2.36216e-15
5.05013 43.6272 -1.49181
-7.06385 23.8028 1.98359e-15
ITEM: ATOMS id type xu yu zu
 1 1 44.5692 25.6816 6.73355
 2 1 43.4616 25.0947 6.14504
 3 1 42.5643 24.4439 6.98024
 4 1 42.7846 24.3071 8.37273
 5 1 43.8785 24.8948 8.8977
 6 1 44.7906 25.5606 8.10931
 7 2 44.1209 24.7986 10.361
 8 2 44.9486 23.5089 10.6585
 9 3 45.4029 26.0285 6.14654
 10 3 43.2584 25.2356 5.04686
 11 3 41.6367 23.9882 6.52782
 12 3 42.0375 23.8739 8.95519
 13 3 45.7805 26.004 8.52257
 14 3 43.1295 24.8001 10.9255
 15 3 44.5824 22.6488 10.0566
 16 3 44.9063 23.2855 11.6921
 17 3 44.7341 25.6833 10.802
 18 3 45.9814 23.7011 10.3257
ITEM: TIMESTEP
21
ITEM: NUMBER OF ATOMS
18
ITEM: BOX BOUNDS pp pp pp xy xz yz
7.05826 77.0749 2.36216e-15
4.69883 43.2759 -1.49181
-7.96819 22.8985 1.98359e-15
ITEM: ATOMS id type xu yu zu
 1 1 42.992 25.1463 5.39587
 2 1 41.685 24.6195 5.31055
 3 1 41.0168 24.1359 6.47507
 4 1 41.7115 23.9364 7.64035
 5 1 43.0585 24.4431 7.75578
 6 1 43.6678 25.0975 6.67393
 7 2 43.6624 24.537 9.15772
 8 2 44.4434 23.3347 9.50576
 9 3 43.4916 25.4999 4.55116
 10 3 41.2441 24.477 4.33398
 11 3 40.0914 23.703 6.37798
 12 3 41.2007 23.463 8.46756
 13 3 44.6925 25.5086 6.78477
 14 3 42.7869 24.6157 9.85568
 15 3 44.034 22.4661 8.92994
 16 3 44.425 23.1181 10.5963
 17 3 44.2981 25.4856 9.36223
 18 3 45.5336 23.5037 9.14953
ITEM: TIMESTEP
22
ITEM: NUMBER OF ATOMS
18
ITEM: BOX BOUNDS pp pp pp xy xz yz
6.45446 76.4711 2.36216e-15
4.84978 43.4268 -1.49181
-7.30338 23.5633 1.98359e-15
ITEM: ATOMS id type xu yu zu
 1 1 43.2248 25.3024 6.63828
 2 1 42.4355 24.6019 5.77673
 3 1 41.3963 23.8116 6.26117
 4 1 41.0485 23.943 7.60427
 5 1 41.8126 24.6495 8.51147
 6 1 42.9201 25.3248 8.00122
 7 2 41.6847 24.3298 9.97861
 8 2 42.8066 23.4618 10.4965
 9 3 44.1972 25.6698 6.31615
 10 3 42.7723 24.5011 4.7199
 11 3 40.843 23.1801 5.62854
 12 3 40.2202 23.3129 7.99069
 13 3 43.5663 25.7556 8.76346
 14 3 40.6762 23.8688 10.1492
 15 3 42.9747 22.521 9.90528
 16 3 42.5356 23.2798 11.54
 17 3 41.5703 25.2616 10.4735
 18 3 43.7478 24.0491 10.4966
ITEM: TIMESTEP
23
ITEM: NUMBER OF ATOMS
18
ITEM: BOX BOUNDS pp pp pp xy xz yz
7.06401 77.0807 2.36216e-15
4.90648 43.4835 -1.49181
-7.73609 23.1306 1.98359e-15
ITEM: ATOMS id type xu yu zu
 1 1 43.2349 24.556 5.66092
 2 1 41.8931 24.1832 5.72922
 3 1 41.3098 24.0544 6.92263
 4 1 41.9845 24.4079 8.10109
 5 1 43.3251 24.7438 8.10822
 6 1 43.9517 24.8309 6.84116
 7 2 44.0982 24.8197 9.39847
 8 2 44.5888 23.3861 9.8201
 9 3 43.7734 24.5621 4.69528
 10 3 41.3397 23.8736 4.87331
 11 3 40.3114 23.5206 6.97164
 12 3 41.473 24.3976 9.03027
 13 3 44.9816 25.1823 6.79098
 14 3 43.4778 25.2747 10.1977
 15 3 45.3251 23.4517 10.6992
 16 3 45.0862 22.8574 9.00837
 17 3 45.0292 25.5326 9.45821
 18 3 43.6966 22.9044 10.1847
ITEM: TIMESTEP
24
ITEM: NUMBER OF ATOMS
18
ITEM: BOX BOUNDS pp pp pp xy xz yz
6.89651 76.9132 2.36216e-15
4.41948 42.9965 -1.49181
-7.37657 23.4901 1.98359e-15
ITEM: ATOMS id type xu yu zu
 1 1 43.6953 24.7164 6.37819
 2 1 42.4186 24.4669 5.89405
 3 1 41.2996 24.3088 6.77344
 4 1 41.5231 24.3148 8.13211
 5 1 42.8216 24.6062 8.63264
 6 1 43.921 24.7463 7.70262
 7 2 43.1171 24.3969 10.0411
 8 2 43.732 23.0528 10.2506
 9 3 44.524 24.7112 5.7132
 10 3 42.2411 24.4262 4.82992
 11 3 40.3686 24.0185 6.40846
 12 3 40.7435 23.9725 8.77264
 13 3 44.9329 24.7605 8.03743
 14 3 42.1539 24.4241 10.5784
 15 3 44.7422 23.1685 9.85659
 16 3 43.2812 22.2346 9.68942
 17 3 43.7525 25.1814 10.4648
 18 3 43.8667 22.7304 11.2836
ITEM: TIMESTEP
25
ITEM: NUMBER OF ATOMS
18
ITEM: BOX BOUNDS pp pp pp xy xz yz
7.6187 77.6354 2.36216e-15
5.22118 43.7982 -1.49181
-7.34495 23.5217 1.98359e-15
ITEM: ATOMS id type xu yu zu
 1 1 44.067 25.2511 6.11876
 2 1 42.6884 25.1145 5.9429
 3 1 41.8969 24.8803 7.06292
 4 1 42.4164 25.0556 8.33992
 5 1 43.7481 25.2633 8.55196
 6 1 44.5981 25.2826 7.43941
 7 2 44.2982 25.1213 9.96326
 8 2 45.0878 23.8448 10.1185
 9 3 44.6764 24.9475 5.2814
 10 3 42.2621 25.0749 4.99227
 11 3 40.7826 24.6608 6.91975
 12 3 41.7165 25.032 9.15472
 13 3 45.6414 25.4313 7.5097
 14 3 43.6195 25.2539 10.8475
 15 3 45.9633 23.664 9.44766
 16 3 44.4281 23.0213 10.0967
 17 3 45.0516 25.9981 10.095
 18 3 45.5435 23.7494 11.1845
ITEM: TIMESTEP
26
ITEM: NUMBER OF ATOMS
18
ITEM: BOX BOUNDS pp pp pp xy xz yz
8.02821 78.0449 2.36216e-15
5.35243 43.9295 -1.49181
-7.73741 23.1293 1.98359e-15
ITEM: ATOMS id type xu yu zu
 1 1 42.9711 25.112 6.05716
 2 1 41.9093 24.2133 6.37136
 3 1 41.6833 23.7429 7.68827
 4 1 42.6498 24.0673 8.68468
 5 1 43.8006 24.8027 8.31166
 6 1 43.8527 25.4288 7.05114
 7 2 44.9635 24.8445 9.27819
 8 2 45.9742 23.7897 8.8781
 9 3 43.0407 25.5442 5.07744
 10 3 41.0649 24.1053 5.6446
 11 3 40.7134 23.2285 8.01064
 12 3 42.5852 23.6009 9.67737
 13 3 44.5323 26.2387 6.83522
 14 3 44.6941 24.6628 10.3144
 15 3 45.654 23.2543 7.95352
 16 3 46.2113 23.0432 9.64214
 17 3 45.4443 25.8311 9.30027
 18 3 46.8515 24.4051 8.61758
ITEM: TIMESTEP
27
ITEM: NUMBER OF ATOMS
18
ITEM: BOX BOUNDS pp pp pp xy xz yz
7.56766 77.5843 2.36216e-15
5.44908 44.0261 -1.49181
-8.66323 22.2034 1.98359e-15
ITEM: ATOMS id type xu yu zu
 1 1 43.0484 24.9942 5.14554
 2 1 41.7337 24.6788 5.47546
 3 1 41.431 24.545 6.81709
 4 1 42.2427 25.1072 7.77029
 5 1 43.5923 25.427 7.42359
 6 1 43.9531 25.3615 6.09718
 7 2 44.6738 25.4854 8.47873
 8 2 45.388 24.1227 8.68742
 9 3 43.3944 24.9462 4.13546
 10 3 41.0173 24.3844 4.71895
 11 3 40.4749 24.2702 7.14706
 12 3 41.9623 24.9892 8.80314
 13 3 44.8839 25.657 5.78711
 14 3 44.2602 25.9072 9.40474
 15 3 45.8479 23.7489 7.71642
 16 3 44.7325 23.3056 9.07606
 17 3 45.4598 26.1696 8.04905
 18 3 46.1689 24.4386 9.37387
ITEM: TIMESTEP
28
ITEM: NUMBER OF ATOMS
18
ITEM: BOX BOUNDS pp pp pp xy xz yz
6.52505 76.5417 2.36216e-15
5.26723 43.8443 -1.49181
-8.58425 22.2824 1.98359e-15
ITEM: ATOMS id type xu yu zu
 1 1 41.2262 23.9518 5.25472
 2 1 40.1858 23.3485 5.98603
 3 1 40.1182 23.4793 7.40337
 4 1 41.069 24.2251 8.05037
 5 1 42.1732 24.7824 7.3655
 6 1 42.2886 24.5805 5.95907
 7 2 43.3753 25.4011 8.12696
 8 2 44.3912 24.3299 8.5364
 9 3 41.225 23.8539 4.20159
 10 3 39.4241 22.874 5.45896
 11 3 39.3481 22.9888 7.91696
 12 3 41.0347 24.2502 9.15096
 13 3 43.1224 25.1526 5.41101
 14 3 42.9612 25.732 9.10653
 15 3 45.2105 24.1927 7.81336
 16 3 43.9724 23.2964 8.70004
 17 3 43.8983 26.2375 7.56546
 18 3 44.8495 24.6377 9.49657
ITEM: TIMESTEP
29
ITEM: NUMBER OF ATOMS
18
ITEM: BOX BOUNDS pp pp pp xy xz yz
6.25231 76.269 2.36216e-15
5.19578 43.7728 -1.49181
-8.04251 22.8242 1.98359e-15
ITEM: ATOMS id type xu yu zu
 1 1 40.2758 23.6378 6.15985
 2 1 39.594 23.2037 7.32015
 3 1 40.1892 23.5058 8.56002
 4 1 41.4131 24.0996 8.6091
 5 1 42.0634 24.5433 7.4556
 6 1 41.4994 24.3167 6.22626
 7 2 43.3962 25.2201 7.55896
 8 2 44.5806 24.3224 7.25712
 9 3 39.9793 23.2848 5.18251
 10 3 38.5583 22.8011 7.24843
 11 3 39.5546 23.3744 9.45434
 12 3 41.8537 24.212 9.59914
 13 3 42.184 24.3491 5.36456
 14 3 43.5263 25.562 8.62536
 15 3 44.5387 23.902 6.23934
 16 3 44.7539 23.5661 8.03048
 17 3 43.4544 26.1675 6.95431
 18 3 45.4548 24.952 7.29866
ITEM: TIMESTEP
30
ITEM: NUMBER OF ATOMS
18
ITEM: BOX BOUNDS pp pp pp xy xz yz
5.58381 75.6005 2.36216e-15
4.92993 43.507 -1.49181
-8.21812 22.6485 1.98359e-15
ITEM: ATOMS id type xu yu zu
 1 1 39.6847 23.1819 5.95164
 2 1 38.9787 22.9497 7.14994
 3 1 39.5178 23.3857 8.38687
 4 1 40.7698 24.0033 8.37618
 5 1 41.4359 24.2742 7.17954
 6 1 40.8765 23.875 5.94818
 7 2 42.8041 24.7906 7.29821
 8 2 43.7268 24.2511 8.4199
 9 3 39.3254 22.8187 4.97366
 10 3 37.9319 22.555 7.09287
 11 3 38.9905 23.257 9.36347
 12 3 41.1469 24.2776 9.35516
 13 3 41.4163 24.014 5.09058
 14 3 42.7097 25.8819 7.37848
 15 3 43.3823 23.2189 8.65499
 16 3 43.6467 24.78 9.45676
 17 3 43.2623 24.595 6.31758
 18 3 44.7442 24.2932 8.14198
ITEM: TIMESTEP
31
ITEM: NUMBER OF ATOMS
18
ITEM: BOX BOUNDS pp pp pp xy xz yz
5.99571 76.0124 2.36216e-15
5.00283 43.5799 -1.49181
-7.88173 22.9849 1.98359e-15
ITEM: ATOMS id type xu yu zu
 1 1 39.6467 23.0781 6.772
 2 1 39.7018 22.9016 8.17759
 3 1 40.6712 23.5603 8.94541
 4 1 41.6278 24.323 8.31996
 5 1 41.6631 24.5524 6.94701
 6 1 40.684 23.8727 6.15221
 7 2 42.7675 25.2565 6.32752
 8 2 43.8633 24.2778 5.81296
 9 3 38.8755 22.6419 6.21054
 10 3 38.882 22.5316 8.72404
 11 3 40.7543 23.4484 10.0363
 12 3 42.4687 24.6327 8.92328
 13 3 40.8244 23.8607 5.06691
 14 3 43.2412 26.0511 6.99906
 15 3 43.4731 23.5708 5.07319
 16 3 44.1713 23.6181 6.69319
 17 3 42.4269 25.7766 5.4078
 18 3 44.6244 24.8348 5.276
ITEM: TIMESTEP
32
ITEM: NUMBER OF ATOMS
18
ITEM: BOX BOUNDS pp pp pp xy xz yz
7.15911 77.1758 2.36216e-15
5.17483 43.7519 -1.49181
-7.90066 22.966 1.98359e-15
ITEM: ATOMS id type xu yu zu
 1 1 40.8796 23.5924 7.15288
 2 1 41.1219 23.4446 8.51726
 3 1 42.3388 23.8824 9.08129
 4 1 43.2129 24.642 8.27902
 5 1 43.0035 24.7991 6.88902
 6 1 41.7396 24.3561 6.40378
 7 2 44.082 25.3309 6.0601
 8 2 45.0849 24.3199 5.53922
 9 3 39.9571 23.1739 6.74207
 10 3 40.4685 22.8718 9.14395
 11 3 42.5433 23.7308 10.0965
 12 3 44.0002 25.169 8.77719
 13 3 41.6369 24.2778 5.28906
 14 3 44.7392 26.0549 6.71434
 15 3 44.4858 23.5166 5.03265
 16 3 45.5266 23.8414 6.48633
 17 3 43.6852 25.8065 5.1804
 18 3 45.8696 24.8752 4.96884
ITEM: TIMESTEP
33
ITEM: NUMBER OF ATOMS
18
ITEM: BOX BOUNDS pp pp pp xy xz yz
6.53626 76.5529 2.36216e-15
5.21158 43.7886 -1.49181
-8.2041 22.6626 1.98359e-15
ITEM: ATOMS id type xu yu zu
 1 1 40.2773 23.454 6.82818
 2 1 40.4469 23.299 8.18376
 3 1 41.3459 24.0914 8.87551
 4 1 42.3311 24.7327 8.15587
 5 1 42.3631 24.7041 6.77079
 6 1 41.2613 24.034 6.08319
 7 2 43.3179 25.5054 5.98784
 8 2 44.301 24.515 5.33555
 9 3 39.4779 22.8509 6.28872
 10 3 39.6982 22.7582 8.7357
 11 3 41.2687 24.2116 9.94165
 12 3 42.9988 25.259 8.73626
 13 3 41.1568 23.9912 5.04377
 14 3 43.8053 26.242 6.63933
 15 3 43.7047 23.9705 4.51681
 16 3 44.6799 23.7496 6.06659
 17 3 42.8409 26.0941 5.16013
 18 3 45.1031 25.1097 4.87222
ITEM: TIMESTEP
34
ITEM: NUMBER OF ATOMS
18
ITEM: BOX BOUNDS pp pp pp xy xz yz
6.93911 76.9558 2.36216e-15
5.30788 43.8849 -1.49181
-8.28076 22.5859 1.98359e-15
ITEM: ATOMS id type xu yu zu
 1 1 40.6101 24.0384 6.24071
 2 1 40.3362 23.5652 7.50713
 3 1 41.325 23.7144 8.52564
 4 1 42.5806 24.2121 8.20966
 5 1 42.8887 24.5872 6.86174
 6 1 41.8661 24.5997 5.94734
 7 2 44.1556 25.249 6.54673
 8 2 45.1021 24.3888 5.71202
 9 3 39.8044 24.0555 5.45462
 10 3 39.386 23.1339 7.76089
 11 3 41.0885 23.421 9.48706
 12 3 43.3367 24.0705 8.94797
 13 3 42.1051 24.8264 4.8808
 14 3 44.6806 25.6016 7.41383
 15 3 44.6083 23.9767 4.81809
 16 3 45.4672 23.5907 6.39607
 17 3 43.9276 26.0589 5.88971
 18 3 46.0007 24.9956 5.34917
ITEM: TIMESTEP
35
ITEM: NUMBER OF ATOMS
18
ITEM: BOX BOUNDS pp pp pp xy xz yz
6.89021 76.9069 2.36216e-15
5.13783 43.7149 -1.49181
-8.0888 22.7779 1.98359e-15
ITEM: ATOMS id type xu yu zu
 1 1 40.6119 23.2988 6.34983
 2 1 40.468 22.8303 7.68185
 3 1 41.0459 23.5482 8.74029
 4 1 42.0517 24.4693 8.41171
 5 1 42.3733 24.7915 7.11655
 6 1 41.5203 24.2831 6.06895
 7 2 43.4188 25.7583 6.82813
 8 2 44.8041 24.9934 6.82307
 9 3 40.1347 22.76 5.54438
 10 3 39.631 22.2237 7.92457
 11 3 40.5827 23.4937 9.6812
 12 3 42.6745 24.9334 9.19064
 13 3 41.7623 24.549 5.00786
 14 3 43.4344 26.629 7.58252
 15 3 44.837 24.3249 5.90755
 16 3 44.8942 24.4225 7.76606
 17 3 43.2319 26.2236 5.81915
 18 3 45.6579 25.7572 6.7237
ITEM: TIMESTEP
36
ITEM: NUMBER OF ATOMS
18
ITEM: BOX BOUNDS pp pp pp xy xz yz
6.31311 76.3298 2.36216e-15
4.80768 43.3847 -1.49181
-7.74941 23.1173 1.98359e-15
ITEM: ATOMS id type xu yu zu
 1 1 39.9128 22.7939 7.37164
 2 1 39.9829 23.0715 8.77119
 3 1 40.9113 24.0246 9.28481
 4 1 41.7797 24.7012 8.40463
 5 1 41.7208 24.426 7.0334
 6 1 40.7548 23.5956 6.52843
 7 2 42.8121 24.9976 6.14483
 8 2 44.0766 24.1286 6.1919
 9 3 39.1881 22.1483 6.95847
 10 3 39.3171 22.4944 9.47383
 11 3 40.9545 24.1917 10.3376
 12 3 42.5815 25.2164 8.83961
 13 3 40.842 23.3694 5.49929
 14 3 43.0185 26.0441 6.48627
 15 3 44.0383 23.3805 5.34072
 16 3 44.1619 23.5633 7.0881
 17 3 42.4994 24.9615 5.03025
 18 3 44.9466 24.8254 6.12292
ITEM: TIMESTEP
37
ITEM: NUMBER OF ATOMS
18
ITEM: BOX BOUNDS pp pp pp xy xz yz
6.15456 76.1712 2.36216e-15
5.26143 43.8385 -1.49181
-8.10855 22.7581 1.98359e-15
ITEM: ATOMS id type xu yu zu
 1 1 39.8406 23.3137 6.4063
 2 1 39.5406 23.2625 7.76109
 3 1 40.2546 24.0837 8.67278
 4 1 41.344 24.8001 8.16943
 5 1 41.7204 24.7613 6.83685
 6 1 40.8954 24.0488 5.91835
 7 2 42.9879 25.4177 6.30752
 8 2 44.2552 25.1206 7.06574
 9 3 39.2927 22.6701 5.68701
 10 3 38.703 22.6531 8.06745
 11 3 40.1325 23.9609 9.7679
 12 3 41.8013 25.4989 8.87813
 13 3 41.149 23.9072 4.88167
 14 3 42.8505 26.4468 6.38336
 15 3 44.2192 25.5835 8.07297
 16 3 45.1146 25.4689 6.43826
 17 3 43.1829 24.9662 5.25621
 18 3 44.3779 24.0798 7.39411
ITEM: TIMESTEP
38
ITEM: NUMBER OF ATOMS
18
ITEM: BOX BOUNDS pp pp pp xy xz yz
6.01326 76.0299 2.36216e-15
5.16118 43.7382 -1.49181
-8.10013 22.7665 1.98359e-15
ITEM: ATOMS id type xu yu zu
 1 1 39.8099 23.1059 6.40884
 2 1 39.4685 23.2508 7.75987
 3 1 40.2879 23.9683 8.64221
 4 1 41.2505 24.753 8.16201
 5 1 41.6912 24.5541 6.80592
 6 1 41.0043 23.7277 5.96718
 7 2 42.8855 25.3665 6.35216
 8 2 44.139 25.1077 7.17004
 9 3 39.3344 22.4108 5.73154
 10 3 38.5536 22.8621 8.1786
 11 3 39.8875 24.164 9.69624
 12 3 41.8428 25.4427 8.80913
 13 3 41.3543 23.6499 4.97016
 14 3 42.6461 26.4886 6.37851
 15 3 44.9814 25.7975 6.85839
 16 3 44.5327 24.1216 6.92964
 17 3 43.1477 25.1705 5.2312
 18 3 43.9437 25.225 8.26814
ITEM: TIMESTEP
39
ITEM: NUMBER OF ATOMS
18
ITEM: BOX BOUNDS pp pp pp xy xz yz
6.00061 76.0173 2.36216e-15
4.97823 43.5553 -1.49181
-7.7281 23.1386 1.98359e-15
ITEM: ATOMS id type xu yu zu
 1 1 39.8303 23.2447 7.94629
 2 1 40.1534 23.6962 9.25699
 3 1 41.1992 24.5529 9.42555
 4 1 41.985 24.9665 8.31896
 5 1 41.6734 24.4975 7.03472
 6 1 40.5094 23.6847 6.86731
 7 2 42.5539 24.8426 5.85287
 8 2 43.8283 24.0799 5.9486
 9 3 39.0886 22.541 7.89338
 10 3 39.4688 23.5341 10.0477
 11 3 41.5544 24.7404 10.4663
 12 3 42.8477 25.5704 8.42202
 13 3 40.3917 23.2041 5.92845
 14 3 42.7209 25.9925 5.82804
 15 3 43.6052 22.9738 5.93974
 16 3 44.4211 24.2629 6.86213
 17 3 42.0234 24.5879 4.94416
 18 3 44.4199 24.4128 5.09799
ITEM: TIMESTEP
40
ITEM: NUMBER OF ATOMS
18
ITEM: BOX BOUNDS pp pp pp xy xz yz
6.11291 76.1296 2.36216e-15
4.60818 43.1852 -1.49181
-8.25366 22.613 1.98359e-15
ITEM: ATOMS id type xu yu zu
 1 1 40.0643 22.5652 6.05293
 2 1 39.543 22.3677 7.34415
 3 1 39.9957 23.0776 8.4227
 4 1 40.9853 24.0912 8.23567
 5 1 41.6644 24.1906 6.99068
 6 1 41.242 23.3828 5.90495
 7 2 42.7903 25.1201 6.86324
 8 2 44.0891 24.5141 7.42623
 9 3 39.5841 22.0864 5.17653
 10 3 38.7905 21.6628 7.47293
 11 3 39.527 23.0028 9.4155
 12 3 41.3654 24.6112 9.13152
 13 3 41.6599 23.5926 4.94385
 14 3 42.6366 26.1306 7.34957
 15 3 44.1689 23.4688 7.05432
 16 3 44.1951 24.4946 8.53322
 17 3 42.9032 25.3181 5.81008
 18 3 44.9438 25.0136 6.89934
ITEM: TIMESTEP
41
ITEM: NUMBER OF ATOMS
18
ITEM: BOX BOUNDS pp pp pp xy xz yz
6.39596 76.4126 2.36216e-15
4.88294 43.46 -1.49181
-8.21917 22.6475 1.98359e-15
ITEM: ATOMS id type xu yu zu
 1 1 40.3512 22.8727 6.28776
 2 1 39.7064 22.9966 7.46954
 3 1 40.2529 23.7362 8.53161
 4 1 41.3389 24.6092 8.23427
 5 1 42.0683 24.4958 7.0024
 6 1 41.4682 23.7303 5.94389
 7 2 43.2159 25.4207 6.67867
 8 2 44.5299 24.7015 6.92903
 9 3 39.9751 22.1317 5.50101
 10 3 38.9877 22.2174 7.72597
 11 3 39.8879 23.4998 9.52362
 12 3 41.8071 25.1563 9.07799
 13 3 41.8479 23.7037 4.90471
 14 3 43.1563 26.2112 7.35226
 15 3 44.5574 23.7577 6.33345
 16 3 44.6975 24.4423 7.96747
 17 3 43.1396 25.8276 5.65977
 18 3 45.3127 25.3986 6.55141
ITEM: TIMESTEP
42