ITEM: TIMESTEP
0
ITEM: NUMBER OF ATOMS
15
ITEM: BOX BOUNDS pp pp pp xy xz yz
1.11056 70.984 2.35733e-15
0.3831 38.8812 -1.48876
-7.03834 23.7652 1.97953e-15
ITEM: ATOMS id type xu yu zu
 1 1 38.2041 19.5919 8.97331
 2 1 37.4834 19.3674 10.1547
 3 1 36.0982 19.3135 10.1483
 4 1 35.4105 19.4409 8.92525
 5 1 36.1221 19.4655 7.73031
 6 1 37.5518 19.6806 7.76092
 7 2 35.3294 19.4814 6.47614
 8 3 39.2692 19.8131 9.00871
 9 3 38.036 19.2152 11.1176
 10 3 35.5206 19.1851 11.0373
 11 3 34.3141 19.6301 8.92072
 12 3 38.0981 19.9957 6.90509
 13 3 34.8893 20.4906 6.3986
 14 3 34.505 18.7737 6.62931
 15 3 35.9323 19.0805 5.60923
ITEM: TIMESTEP
1
ITEM: NUMBER OF ATOMS
15
ITEM: BOX BOUNDS pp pp pp xy xz yz
-0.247338 69.6261 2.35733e-15
0.639549 39.1376 -1.48876
-7.6478 23.1557 1.97953e-15
ITEM: ATOMS id type xu yu zu
 1 1 36.631 19.3211 8.96725
 2 1 35.3909 19.1154 9.61951
 3 1 34.2266 18.9846 8.86285
 4 1 34.2274 19.2802 7.5464
 5 1 35.4541 19.5318 6.89045
 6 1 36.6223 19.5043 7.58679
 7 2 35.4032 20.106 5.49385
 8 3 37.5441 19.2672 9.51794
 9 3 35.4154 18.8192 10.6219
 10 3 33.3234 18.5767 9.3087
 11 3 33.3792 19.3667 6.9935
 12 3 37.5435 19.8572 7.09512
 13 3 36.2839 19.8464 4.886
 14 3 35.3213 21.2005 5.5628
 15 3 34.5072 19.682 4.95936
ITEM: TIMESTEP
2
ITEM: NUMBER OF ATOMS
15
ITEM: BOX BOUNDS pp pp pp xy xz yz
1.12086 70.9943 2.35733e-15
0.5849 39.083 -1.48876
-7.14423 23.6593 1.97953e-15
ITEM: ATOMS id type xu yu zu
 1 1 38.0796 20.6107 8.80482
 2 1 37.5165 20.1666 9.98576
 3 1 36.3342 19.4471 10.0075
 4 1 35.6784 19.1423 8.81922
 5 1 36.2118 19.59 7.58586
 6 1 37.3888 20.4496 7.5815
 7 2 35.41 19.3995 6.33517
 8 3 39.0731 21.1096 8.86542
 9 3 37.9691 20.3326 10.8852
 10 3 35.9717 19.1271 10.9675
 11 3 34.7671 18.5583 8.79081
 12 3 37.655 20.9534 6.69055
 13 3 35.9794 18.9016 5.54754
 14 3 35.1046 20.3994 5.97617
 15 3 34.5308 18.7627 6.54958
ITEM: TIMESTEP
3
ITEM: NUMBER OF ATOMS
15
ITEM: BOX BOUNDS pp pp pp xy xz yz
0.362964 70.2364 2.35733e-15
0.81055 39.3087 -1.48876
-7.8572 22.9463 1.97953e-15
ITEM: ATOMS id type xu yu zu
 1 1 37.43 20.0362 8.12018
 2 1 36.7565 19.8528 9.32903
 3 1 35.3394 19.836 9.3515
 4 1 34.6372 19.9674 8.13554
 5 1 35.3192 19.9919 6.93495
 6 1 36.7088 20.0526 6.94114
 7 2 34.5419 20.0426 5.62842
 8 3 38.5113 20.2956 8.13871
 9 3 37.2652 19.8484 10.2657
 10 3 34.8391 19.7603 10.3214
 11 3 33.5768 19.897 8.09321
 12 3 37.1481 20.3671 6.03889
 13 3 35.2371 20.1018 4.7677
 14 3 33.9202 20.9785 5.6687
 15 3 33.8997 19.1407 5.48868
ITEM: TIMESTEP
4
ITEM: NUMBER OF ATOMS
15
ITEM: BOX BOUNDS pp pp pp xy xz yz
0.530963 70.4044 2.35733e-15
0.769298 39.2674 -1.48876
-7.0851 23.7184 1.97953e-15
ITEM: ATOMS id type xu yu zu
 1 1 37.8001 20.257 8.64648
 2 1 37.2456 19.7798 9.87906
 3 1 35.9764 19.2493 9.94634
 4 1 35.1159 19.4247 8.81745
 5 1 35.6041 19.9191 7.58809
 6 1 36.9374 20.283 7.4864
 7 2 34.6966 20.1149 6.42079
 8 3 38.797 20.6123 8.6512
 9 3 37.8812 19.7915 10.7535
 10 3 35.5407 19.0012 10.9366
 11 3 34.0994 19.0323 8.88366
 12 3 37.3686 20.6529 6.49443
 13 3 34.7819 19.2642 5.6967
 14 3 34.9036 21.0355 5.85527
 15 3 33.6271 20.1538 6.77819
ITEM: TIMESTEP
5
ITEM: NUMBER OF ATOMS
15
ITEM: BOX BOUNDS pp pp pp xy xz yz
0.343212 70.2166 2.35733e-15
0.26065 38.7588 -1.48876
-7.02039 23.7831 1.97953e-15
ITEM: ATOMS id type xu yu zu
 1 1 37.3608 20.3227 9.28211
 2 1 36.4106 20.0277 10.2703
 3 1 35.0646 19.8152 9.95829
 4 1 34.7214 19.5659 8.6087
 5 1 35.6887 19.6608 7.59989
 6 1 36.9885 20.0234 7.91778
 7 2 35.377 19.1538 6.21985
 8 3 38.3445 20.7364 9.57088
 9 3 36.7079 20.3298 11.3014
 10 3 34.3584 19.6098 10.733
 11 3 33.7041 19.2702 8.40736
 12 3 37.7542 20.2056 7.16831
 13 3 36.0155 18.283 6.02554
 14 3 35.562 20.0149 5.46133
 15 3 34.3078 18.8216 6.17553
ITEM: TIMESTEP
6
ITEM: NUMBER OF ATOMS
15
ITEM: BOX BOUNDS pp pp pp xy xz yz
1.10181 70.9752 2.35733e-15
0.730549 39.2286 -1.48876
-7.17495 23.6286 1.97953e-15
ITEM: ATOMS id type xu yu zu
 1 1 38.1214 20.0967 9.02875
 2 1 37.3581 19.5971 10.0854
 3 1 35.9657 19.3863 9.95314
 4 1 35.3992 19.4389 8.64704
 5 1 36.2113 19.782 7.57801
 6 1 37.5242 20.2252 7.79416
 7 2 35.6131 19.8809 6.18516
 8 3 39.1702 20.42 9.22655
 9 3 37.8516 19.4768 11.0387
 10 3 35.3924 19.0851 10.7816
 11 3 34.3956 19.1671 8.44749
 12 3 38.075 20.6252 7.02694
 13 3 35.1499 20.8741 6.02897
 14 3 34.8236 19.0866 6.02688
 15 3 36.4087 19.7304 5.4149
ITEM: TIMESTEP
7
ITEM: NUMBER OF ATOMS
15
ITEM: BOX BOUNDS pp pp pp xy xz yz
0.80096 70.6744 2.35733e-15
0.401401 38.8995 -1.48876
-6.84583 23.9577 1.97953e-15
ITEM: ATOMS id type xu yu zu
 1 1 37.7978 19.5827 9.42075
 2 1 36.8784 19.3565 10.4275
 3 1 35.5748 18.9974 10.1202
 4 1 35.1555 19.0201 8.78006
 5 1 36.0493 19.4192 7.76335
 6 1 37.3792 19.6794 8.1145
 7 2 35.5584 19.5647 6.32324
 8 3 38.8077 19.7324 9.70078
 9 3 37.1877 19.3826 11.4366
 10 3 34.8641 18.7647 10.9578
 11 3 34.1564 18.7443 8.50376
 12 3 38.0865 19.8765 7.27705
 13 3 36.4729 19.5264 5.67524
 14 3 34.9941 20.5566 6.21333
 15 3 34.8357 18.7761 5.99459
ITEM: TIMESTEP
8
ITEM: NUMBER OF ATOMS
15
ITEM: BOX BOUNDS pp pp pp xy xz yz
0.687061 70.5605 2.35733e-15
0.5879 39.086 -1.48876
-7.54767 23.2558 1.97953e-15
ITEM: ATOMS id type xu yu zu
 1 1 37.677 20.3789 8.65002
 2 1 37.0732 19.5923 9.67694
 3 1 35.8524 18.9933 9.42087
 4 1 35.1772 19.2228 8.2365
 5 1 35.7825 19.9499 7.18019
 6 1 37.0835 20.4693 7.38518
 7 2 35.1014 20.1983 5.83946
 8 3 38.6843 20.7577 8.79937
 9 3 37.5773 19.3568 10.6247
 10 3 35.3986 18.4199 10.214
 11 3 34.0932 18.908 8.09484
 12 3 37.5284 21.0054 6.58186
 13 3 35.5922 19.5841 5.08346
 14 3 35.2178 21.254 5.57801
 15 3 34.052 19.9186 5.79131
ITEM: TIMESTEP
9
ITEM: NUMBER OF ATOMS
15
ITEM: BOX BOUNDS pp pp pp xy xz yz
0.677364 70.5508 2.35733e-15
0.561748 39.0598 -1.48876
-7.31984 23.4837 1.97953e-15
ITEM: ATOMS id type xu yu zu
 1 1 37.832 20.2043 8.57645
 2 1 37.2665 19.7743 9.79035
 3 1 35.8962 19.4517 9.78677
 4 1 35.0964 19.5782 8.64904
 5 1 35.6963 19.8926 7.41423
 6 1 37.0785 20.2161 7.40165
 7 2 34.9402 19.8403 6.13383
 8 3 38.8647 20.4516 8.55278
 9 3 37.8911 19.6257 10.6881
 10 3 35.4596 19.0572 10.669
 11 3 34.0583 19.3781 8.71926
 12 3 37.5509 20.5643 6.49205
 13 3 35.296 18.9128 5.61579
 14 3 35.1713 20.7088 5.47572
 15 3 33.8522 19.721 6.20957
ITEM: TIMESTEP
10
ITEM: NUMBER OF ATOMS
15
ITEM: BOX BOUNDS pp pp pp xy xz yz
0.824161 70.6976 2.35733e-15
0.8794 39.3775 -1.48876
-7.45096 23.3525 1.97953e-15
ITEM: ATOMS id type xu yu zu
 1 1 37.9718 20.7823 8.38644
 2 1 37.4709 20.394 9.62809
 3 1 36.1164 19.9724 9.67998
 4 1 35.3202 19.9426 8.51356
 5 1 35.8981 20.2775 7.26857
 6 1 37.2546 20.5942 7.22242
 7 2 35.1589 20.0065 6.00802
 8 3 38.9716 21.1511 8.31548
 9 3 38.1229 20.3867 10.5002
 10 3 35.6421 19.7915 10.6269
 11 3 34.3123 19.6952 8.64797
 12 3 37.8021 20.7858 6.27216
 13 3 34.0389 19.806 6.06882
 14 3 35.6514 19.1058 5.56113
 15 3 35.3169 20.8373 5.27468
ITEM: TIMESTEP
11
ITEM: NUMBER OF ATOMS
15
ITEM: BOX BOUNDS pp pp pp xy xz yz
0.655063 70.5285 2.35733e-15
0.8566 39.3547 -1.48876
-7.29769 23.5058 1.97953e-15
ITEM: ATOMS id type xu yu zu
 1 1 37.7228 19.9404 8.91431
 2 1 36.8465 19.5746 9.98226
 3 1 35.4795 19.4698 9.7024
 4 1 34.9617 19.6464 8.40501
 5 1 35.8938 19.868 7.34444
 6 1 37.255 20.0686 7.61033
 7 2 35.4728 19.8472 5.89928
 8 3 38.7759 20.2495 9.12722
 9 3 37.2483 19.4666 11.0061
 10 3 34.7794 19.299 10.5104
 11 3 33.8964 19.5357 8.28709
 12 3 37.9638 20.3325 6.89551
 13 3 34.4854 19.3598 5.76218
 14 3 36.2022 19.3871 5.20203
 15 3 35.303 20.9123 5.66431
ITEM: TIMESTEP
12
ITEM: NUMBER OF ATOMS
15
ITEM: BOX BOUNDS pp pp pp xy xz yz
1.01631 70.8897 2.35733e-15
0.95235 39.4505 -1.48876
-8.11028 22.6932 1.97953e-15
ITEM: ATOMS id type xu yu zu
 1 1 38.0754 20.2499 7.97711
 2 1 37.3761 20.0383 9.14428
 3 1 36.0006 19.6731 9.05143
 4 1 35.3749 19.5962 7.83013
 5 1 36.0769 19.9902 6.67822
 6 1 37.4402 20.219 6.75319
 7 2 35.4153 20.0455 5.32688
 8 3 39.1045 20.5624 8.04216
 9 3 37.9103 20.0618 10.1108
 10 3 35.4248 19.4603 9.96853
 11 3 34.2903 19.2825 7.8342
 12 3 38.0268 20.3472 5.82547
 13 3 35.1333 21.1203 5.15679
 14 3 34.5323 19.371 5.34553
 15 3 36.0117 19.7236 4.47215
ITEM: TIMESTEP
13
ITEM: NUMBER OF ATOMS
15
ITEM: BOX BOUNDS pp pp pp xy xz yz
0.975162 70.8486 2.35733e-15
0.84725 39.3454 -1.48876
-7.78283 23.0207 1.97953e-15
ITEM: ATOMS id type xu yu zu
 1 1 38.0547 20.0931 8.29096
 2 1 37.3705 19.7082 9.45117
 3 1 36.0312 19.2949 9.37432
 4 1 35.3538 19.4198 8.14115
 5 1 36.064 19.8076 6.97285
 6 1 37.4317 20.1072 7.06418
 7 2 35.348 20.1149 5.72668
 8 3 39.0296 20.4595 8.3904
 9 3 37.8419 19.7855 10.4261
 10 3 35.5286 19.0241 10.2642
 11 3 34.2829 19.3448 8.10282
 12 3 37.9524 20.4572 6.20262
 13 3 34.9938 21.1685 5.89126
 14 3 34.5529 19.3659 5.53532
 15 3 35.9546 20.1471 4.81174
ITEM: TIMESTEP
14
ITEM: NUMBER OF ATOMS
15
ITEM: BOX BOUNDS pp pp pp xy xz yz
0.819912 70.6933 2.35733e-15
0.758949 39.257 -1.48876
-6.76047 24.043 1.97953e-15
ITEM: ATOMS id type xu yu zu
 1 1 37.831 20.2504 9.35621
 2 1 36.9997 19.8817 10.4232
 3 1 35.6946 19.3499 10.2069
 4 1 35.1842 19.4553 8.90915
 5 1 35.9826 19.958 7.84107
 6 1 37.3432 20.2257 8.07937
 7 2 35.429 20.1353 6.49323
 8 3 38.7579 20.7304 9.58692
 9 3 37.3321 20.0939 11.4431
 10 3 35.1327 19.0031 10.9933
 11 3 34.2441 19.0636 8.64324
 12 3 37.9377 20.6209 7.26543
 13 3 35.9539 21.0129 6.02788
 14 3 34.3226 20.3852 6.55507
 15 3 35.592 19.2469 5.83947
ITEM: TIMESTEP
15
ITEM: NUMBER OF ATOMS
15
ITEM: BOX BOUNDS pp pp pp xy xz yz
0.325862 70.1993 2.35733e-15
0.893551 39.3917 -1.48876
-6.54243 24.2611 1.97953e-15
ITEM: ATOMS id type xu yu zu
 1 1 37.2988 20.1492 10.0279
 2 1 36.1623 19.7795 10.7742
 3 1 34.8909 19.6516 10.1953
 4 1 34.761 19.8663 8.79664
 5 1 35.8886 20.0945 8.00334
 6 1 37.1638 20.1829 8.60715
 7 2 35.7596 20.3556 6.54594
 8 3 38.2683 20.2564 10.5286
 9 3 36.2752 19.3954 11.7589
 10 3 34.1296 19.1691 10.7341
 11 3 33.7456 19.8519 8.35853
 12 3 38.0359 20.4493 7.96659
 13 3 36.689 20.7365 6.09586
 14 3 34.9954 21.1161 6.40594
 15 3 35.4402 19.464 5.95975
ITEM: TIMESTEP
16
ITEM: NUMBER OF ATOMS
15
ITEM: BOX BOUNDS pp pp pp xy xz yz
1.20571 71.0791 2.35733e-15
0.326999 38.8251 -1.48876
-7.75177 23.0517 1.97953e-15
ITEM: ATOMS id type xu yu zu
 1 1 38.5103 20.0826 7.79593
 2 1 38.0892 19.633 9.07349
 3 1 36.9012 18.995 9.24942
 4 1 35.9319 19.1414 8.24706
 5 1 36.3097 19.5161 6.94335
 6 1 37.6191 19.9678 6.73413
 7 2 35.233 19.6536 5.86354
 8 3 39.4465 20.5964 7.67504
 9 3 38.8258 19.6715 9.86682
 10 3 36.6277 18.5557 10.2334
 11 3 34.8978 18.8766 8.47523
 12 3 37.9535 20.3353 5.82474
 13 3 34.3271 20.0262 6.31225
 14 3 35.0834 18.6208 5.4789
 15 3 35.6783 20.307 5.06656
ITEM: TIMESTEP
17
ITEM: NUMBER OF ATOMS
15
ITEM: BOX BOUNDS pp pp pp xy xz yz
0.708362 70.5818 2.35733e-15
0.735 39.2331 -1.48876
-7.27708 23.5264 1.97953e-15
ITEM: ATOMS id type xu yu zu
 1 1 37.7848 20.2489 8.82531
 2 1 36.9694 20.1189 9.97012
 3 1 35.6716 19.734 9.90065
 4 1 35.1205 19.5751 8.60434
 5 1 35.9105 19.6693 7.44273
 6 1 37.2599 20.0085 7.53909
 7 2 35.2543 19.8333 6.11422
 8 3 38.7757 20.7077 8.92544
 9 3 37.4095 20.315 10.9345
 10 3 35.0629 19.6155 10.8229
 11 3 34.0032 19.5286 8.53667
 12 3 37.8233 20.3274 6.68715
 13 3 34.186 19.6684 6.18984
 14 3 35.6182 19.0952 5.31485
 15 3 35.4277 20.8729 5.75583
ITEM: TIMESTEP
18
ITEM: NUMBER OF ATOMS
15
ITEM: BOX BOUNDS pp pp pp xy xz yz
0.889461 70.7629 2.35733e-15
0.637399 39.1355 -1.48876
-7.14974 23.6538 1.97953e-15
ITEM: ATOMS id type xu yu zu
 1 1 37.9084 19.9418 9.05182
 2 1 36.9387 19.8104 10.0541
 3 1 35.5823 19.4837 9.70668
 4 1 35.142 19.5938 8.39562
 5 1 36.0699 19.8979 7.40456
 6 1 37.447 19.9566 7.71319
 7 2 35.6312 20.0079 5.99377
 8 3 38.9739 19.9884 9.25851
 9 3 37.2034 19.7059 11.0723
 10 3 34.9286 19.0535 10.4749
 11 3 34.1672 19.2136 8.13744
 12 3 38.1697 20.2065 6.91554
 13 3 35.3203 19.0049 5.67539
 14 3 36.5239 20.2455 5.43172
 15 3 34.7395 20.768 5.86346
ITEM: TIMESTEP
19
ITEM: NUMBER OF ATOMS
15
ITEM: BOX BOUNDS pp pp pp xy xz yz
0.744915 70.6183 2.35733e-15
0.7626 39.2607 -1.48876
-7.10032 23.7032 1.97953e-15
ITEM: ATOMS id type xu yu zu
 1 1 37.7789 20.3114 9.06143
 2 1 37.039 20.0322 10.1643
 3 1 35.7716 19.4341 10.066
 4 1 35.1919 19.3049 8.80107
 5 1 35.8912 19.7051 7.67398
 6 1 37.2146 20.2131 7.79718
 7 2 35.1017 19.9941 6.40643
 8 3 38.8466 20.5372 9.15319
 9 3 37.5257 20.0449 11.1229
 10 3 35.2009 19.2472 10.9581
 11 3 34.2041 19.0222 8.65415
 12 3 37.7099 20.5843 6.90099
 13 3 35.5367 19.4976 5.47996
 14 3 35.1749 21.0011 6.10813
 15 3 34.0054 19.7749 6.4619
ITEM: TIMESTEP
20
ITEM: NUMBER OF ATOMS
15
ITEM: BOX BOUNDS pp pp pp xy xz yz
0.765514 70.6389 2.35733e-15
0.636699 39.1348 -1.48876
-7.59472 23.2088 1.97953e-15
ITEM: ATOMS id type xu yu zu
 1 1 37.8751 20.5524 8.42838
 2 1 37.4224 19.7746 9.50654
 3 1 36.2137 19.1172 9.38496
 4 1 35.4263 19.2931 8.18146
 5 1 36.0094 19.888 7.02774
 6 1 37.2514 20.4884 7.18977
 7 2 35.1666 20.1839 5.83251
 8 3 38.7624 21.162 8.535
 9 3 37.934 19.8368 10.4518
 10 3 35.7961 18.6095 10.2028
 11 3 34.426 18.9824 8.13554
 12 3 37.7107 20.9478 6.32953
 13 3 35.1713 19.2348 5.16227
 14 3 35.3896 21.1037 5.32538
 15 3 34.1308 20.2502 6.12743
ITEM: TIMESTEP
21
ITEM: NUMBER OF ATOMS
15
ITEM: BOX BOUNDS pp pp pp xy xz yz
0.45531 70.3287 2.35733e-15
0.43415 38.9323 -1.48876
-6.51908 24.2844 1.97953e-15
ITEM: ATOMS id type xu yu zu
 1 1 37.5292 19.9487 9.6574
 2 1 36.6744 19.9592 10.7538
 3 1 35.3057 20.0204 10.483
 4 1 34.7951 19.7891 9.1436
 5 1 35.6692 19.9147 8.08333
 6 1 37.0324 20.0428 8.32389
 7 2 35.1672 19.8437 6.64275
 8 3 38.5776 19.9234 9.85168
 9 3 37.0752 19.9658 11.751
 10 3 34.5963 20.0089 11.2967
 11 3 33.6952 19.7326 9.02172
 12 3 37.7604 19.9067 7.49315
 13 3 35.688 20.5429 6.01434
 14 3 34.0977 20.0756 6.62128
 15 3 35.3906 18.8235 6.21139
ITEM: TIMESTEP
22
ITEM: NUMBER OF ATOMS
15
ITEM: BOX BOUNDS pp pp pp xy xz yz
0.742714 70.6161 2.35733e-15
0.91115 39.4093 -1.48876
-7.40741 23.3961 1.97953e-15
ITEM: ATOMS id type xu yu zu
 1 1 38.1824 20.7658 7.76493
 2 1 37.9595 20.3735 9.09697
 3 1 36.7141 19.7914 9.48715
 4 1 35.7415 19.5921 8.54947
 5 1 35.8872 20.1377 7.23576
 6 1 37.1273 20.7142 6.80716
 7 2 34.6866 20.0177 6.26561
 8 3 39.1258 21.2282 7.45294
 9 3 38.7913 20.4215 9.8498
 10 3 36.5982 19.5444 10.554
 11 3 34.7941 19.0922 8.86239
 12 3 37.3541 20.8112 5.77788
 13 3 34.6894 20.9472 5.7212
 14 3 33.7218 19.7874 6.72738
 15 3 34.901 19.2642 5.43468
ITEM: TIMESTEP
23
ITEM: NUMBER OF ATOMS
15
ITEM: BOX BOUNDS pp pp pp xy xz yz
0.969165 70.8426 2.35733e-15
0.545101 39.0432 -1.48876
-7.33352 23.47 1.97953e-15
ITEM: ATOMS id type xu yu zu
 1 1 38.0662 20.0868 8.96461
 2 1 37.153 19.6717 9.95493
 3 1 35.9074 19.2296 9.6416
 4 1 35.452 19.4559 8.33143
 5 1 36.3522 19.7563 7.29141
 6 1 37.6774 20.1442 7.64514
 7 2 35.8924 19.7175 5.85988
 8 3 38.8916 20.7075 9.25656
 9 3 37.4152 19.7331 11.0065
 10 3 35.2142 18.8138 10.3652
 11 3 34.4089 19.2389 8.08064
 12 3 38.295 20.5633 6.85993
 13 3 35.5215 20.7745 5.57847
 14 3 35.0909 18.9357 5.74239
 15 3 36.647 19.5271 5.12996
ITEM: TIMESTEP
24
ITEM: NUMBER OF ATOMS
15
ITEM: BOX BOUNDS pp pp pp xy xz yz
0.609962 70.4834 2.35733e-15
0.5286 39.0267 -1.48876
-7.23898 23.5645 1.97953e-15
ITEM: ATOMS id type xu yu zu
 1 1 37.6736 19.6713 9.03891
 2 1 36.7438 19.3797 10.0087
 3 1 35.3865 19.2612 9.68297
 4 1 34.9793 19.4098 8.35601
 5 1 35.9332 19.4326 7.32289
 6 1 37.2468 19.7111 7.69514
 7 2 35.4419 19.6506 5.90576
 8 3 38.651 19.8784 9.30964
 9 3 37.0163 19.4171 11.0821
 10 3 34.6615 18.8306 10.3389
 11 3 33.9311 19.5 8.17003
 12 3 37.9615 19.9091 6.89817
 13 3 34.4597 19.2126 5.69065
 14 3 36.1867 19.2917 5.24344
 15 3 35.4033 20.7247 5.71751
ITEM: TIMESTEP
25
ITEM: NUMBER OF ATOMS
15
ITEM: BOX BOUNDS pp pp pp xy xz yz
1.19906 71.0725 2.35733e-15
0.421949 38.9201 -1.48876
-8.0649 22.7386 1.97953e-15
ITEM: ATOMS id type xu yu zu
 1 1 38.2145 20.2558 8.08226
 2 1 37.5455 19.6041 9.15561
 3 1 36.3178 18.9113 8.90842
 4 1 35.6636 19.0726 7.68045
 5 1 36.2962 19.7459 6.65263
 6 1 37.6157 20.2513 6.80071
 7 2 35.581 19.9224 5.38272
 8 3 39.195 20.68 8.30034
 9 3 37.8919 19.6638 10.1668
 10 3 35.8413 18.3855 9.71275
 11 3 34.6298 18.6897 7.58168
 12 3 38.2354 20.5382 5.98178
 13 3 36.12 19.7063 4.50691
 14 3 35.2419 20.9565 5.28159
 15 3 34.5653 19.4238 5.36507
ITEM: TIMESTEP
26
ITEM: NUMBER OF ATOMS
15
ITEM: BOX BOUNDS pp pp pp xy xz yz
0.63261 70.506 2.35733e-15
0.240551 38.7387 -1.48876
-7.27332 23.5302 1.97953e-15
ITEM: ATOMS id type xu yu zu
 1 1 37.7551 19.95 8.66583
 2 1 37.142 19.7432 9.89359
 3 1 35.7371 19.668 9.91814
 4 1 34.9843 19.7408 8.74538
 5 1 35.628 19.9315 7.53315
 6 1 37.0415 19.9657 7.46385
 7 2 34.8147 19.734 6.29409
 8 3 38.767 20.3616 8.71599
 9 3 37.6853 19.9072 10.7873
 10 3 35.2298 19.5297 10.8705
 11 3 33.9313 19.4753 8.76256
 12 3 37.5928 20.1623 6.49911
 13 3 34.4929 18.6176 6.15721
 14 3 35.4334 19.9686 5.38636
 15 3 33.8604 20.292 6.4512
ITEM: TIMESTEP
27
ITEM: NUMBER OF ATOMS
15
ITEM: BOX BOUNDS pp pp pp xy xz yz
0.387264 70.2607 2.35733e-15
0.868149 39.3662 -1.48876
-6.99327 23.8102 1.97953e-15
ITEM: ATOMS id type xu yu zu
 1 1 37.3495 20.1462 9.34112
 2 1 36.4416 19.5363 10.2511
 3 1 35.1239 19.3128 9.87656
 4 1 34.7472 19.4675 8.51163
 5 1 35.6253 20.1246 7.63315
 6 1 36.9513 20.4064 8.02985
 7 2 35.1441 20.2978 6.2005
 8 3 38.3218 20.5126 9.68787
 9 3 36.7759 19.3134 11.2809
 10 3 34.3752 19.0122 10.5875
 11 3 33.8149 19.2179 8.15601
 12 3 37.4948 21.2192 7.42726
 13 3 34.4926 19.4956 5.90267
 14 3 35.942 20.2835 5.53607
 15 3 34.5534 21.2222 6.14722
ITEM: TIMESTEP
28
ITEM: NUMBER OF ATOMS
15
ITEM: BOX BOUNDS pp pp pp xy xz yz
0.62791 70.5013 2.35733e-15
0.445949 38.944 -1.48876
-7.34283 23.4607 1.97953e-15
ITEM: ATOMS id type xu yu zu
 1 1 38.0583 20.2956 7.77225
 2 1 38.0695 19.6503 9.00924
 3 1 36.9096 19.0891 9.54057
 4 1 35.7808 19.0007 8.73328
 5 1 35.7241 19.6471 7.47398
 6 1 36.8712 20.3148 7.00057
 7 2 34.4792 19.6326 6.61664
 8 3 38.9322 20.8846 7.40433
 9 3 38.992 19.4227 9.45237
 10 3 36.9635 18.5056 10.415
 11 3 34.9536 18.4124 9.07327
 12 3 36.7965 20.9776 6.09732
 13 3 33.626 19.1276 7.11403
 14 3 34.7473 19.1163 5.70285
 15 3 34.2084 20.6725 6.45016
ITEM: TIMESTEP
29
ITEM: NUMBER OF ATOMS
15
ITEM: BOX BOUNDS pp pp pp xy xz yz
0.632061 70.5055 2.35733e-15
0.7511 39.2492 -1.48876
-7.09219 23.7113 1.97953e-15
ITEM: ATOMS id type xu yu zu
 1 1 38.0092 20.7201 7.94519
 2 1 37.8478 20.4969 9.30487
 3 1 36.7092 19.8527 9.7985
 4 1 35.7431 19.4373 8.88724
 5 1 35.8171 19.841 7.53812
 6 1 36.9509 20.412 7.04732
 7 2 34.7127 19.5703 6.56805
 8 3 38.8726 21.2679 7.59823
 9 3 38.6336 20.8515 9.9753
 10 3 36.6729 19.5298 10.762
 11 3 34.77 19.2408 9.30695
 12 3 37.0458 20.6786 6.02742
 13 3 33.7537 19.3659 7.07859
 14 3 34.9438 18.7324 5.85713
 15 3 34.4982 20.4331 5.99586
ITEM: TIMESTEP
30
ITEM: NUMBER OF ATOMS
15
ITEM: BOX BOUNDS pp pp pp xy xz yz
1.13056 71.004 2.35733e-15
0.751999 39.2501 -1.48876
-7.2078 23.5957 1.97953e-15
ITEM: ATOMS id type xu yu zu
 1 1 38.2128 20.1601 8.85362
 2 1 37.5285 19.5061 9.93644
 3 1 36.2357 19.1092 9.7525
 4 1 35.5422 19.5253 8.59357
 5 1 36.2299 20.0673 7.51219
 6 1 37.5904 20.4515 7.68719
 7 2 35.5106 20.2679 6.23067
 8 3 39.2754 20.2058 8.88709
 9 3 38.0132 19.3458 10.8821
 10 3 35.7276 18.6973 10.5987
 11 3 34.4428 19.3653 8.51107
 12 3 38.1159 20.899 6.8101
 13 3 34.3479 20.198 6.35596
 14 3 35.9217 19.4684 5.50581
 15 3 35.7507 21.3048 5.92995
ITEM: TIMESTEP
31
ITEM: NUMBER OF ATOMS
15
ITEM: BOX BOUNDS pp pp pp xy xz yz
0.717563 70.591 2.35733e-15
0.3048 38.8029 -1.48876
-6.7878 24.0157 1.97953e-15
ITEM: ATOMS id type xu yu zu
 1 1 37.74 19.9675 9.31407
 2 1 36.9656 19.6947 10.4423
 3 1 35.6311 19.2596 10.2638
 4 1 35.0652 19.2512 8.98281
 5 1 35.8539 19.528 7.89583
 6 1 37.2099 19.8979 8.05131
 7 2 35.1855 19.6203 6.55097
 8 3 38.7914 20.2453 9.44613
 9 3 37.3586 19.8218 11.5049
 10 3 34.9799 19.2033 11.197
 11 3 34.0059 19.027 8.86749
 12 3 37.7691 20.1668 7.20193
 13 3 35.8326 19.8438 5.723
 14 3 34.3712 20.4063 6.57001
 15 3 34.5702 18.7014 6.35688
ITEM: TIMESTEP
32
ITEM: NUMBER OF ATOMS
15
ITEM: BOX BOUNDS pp pp pp xy xz yz
0.358364 70.2318 2.35733e-15
0.503 39.0011 -1.48876
-7.28982 23.5137 1.97953e-15
ITEM: ATOMS id type xu yu zu
 1 1 37.3697 19.7565 8.93756
 2 1 36.5189 19.4143 9.95293
 3 1 35.2602 18.9803 9.63211
 4 1 34.7481 19.115 8.34633
 5 1 35.5737 19.6636 7.35553
 6 1 36.9353 19.9371 7.61646
 7 2 35.0058 19.912 5.99537
 8 3 38.4414 19.8018 9.13698
 9 3 36.8932 19.3136 11.0141
 10 3 34.6613 18.4957 10.4631
 11 3 33.6375 19.0038 8.21399
 12 3 37.6831 20.0302 6.81037
 13 3 35.0035 21.0084 5.78392
 14 3 33.9568 19.4167 5.87542
 15 3 35.5671 19.2681 5.20977
ITEM: TIMESTEP
33
ITEM: NUMBER OF ATOMS
15
ITEM: BOX BOUNDS pp pp pp xy xz yz
0.711662 70.5851 2.35733e-15
0.48435 38.9825 -1.48876
-7.47974 23.3238 1.97953e-15
ITEM: ATOMS id type xu yu zu
 1 1 37.9414 20.0285 8.35218
 2 1 37.4898 19.5212 9.54709
 3 1 36.1302 19.1118 9.67638
 4 1 35.3158 19.0767 8.59048
 5 1 35.7779 19.6227 7.37459
 6 1 37.0631 20.1527 7.28478
 7 2 34.746 19.9243 6.29239
 8 3 38.9586 20.3954 8.27031
 9 3 38.1664 19.5119 10.4079
 10 3 35.7413 18.8327 10.6093
 11 3 34.3291 18.561 8.62567
 12 3 37.3498 20.5689 6.33172
 13 3 35.1768 19.902 5.23472
 14 3 34.3233 20.9058 6.53591
 15 3 33.8269 19.2043 6.41598
ITEM: TIMESTEP
34
ITEM: NUMBER OF ATOMS
15
ITEM: BOX BOUNDS pp pp pp xy xz yz
0.644561 70.518 2.35733e-15
0.89785 39.396 -1.48876
-7.99441 22.8091 1.97953e-15
ITEM: ATOMS id type xu yu zu
 1 1 37.7616 19.8305 8.2331
 2 1 36.963 19.3582 9.28045
 3 1 35.5746 19.4395 9.22432
 4 1 34.9738 19.7654 7.94125
 5 1 35.7795 20.0884 6.82151
 6 1 37.1511 20.3579 7.08168
 7 2 35.2007 20.1756 5.45349
 8 3 38.7594 20.1169 8.43781
 9 3 37.441 19.0601 10.1538
 10 3 34.9446 19.1459 10.0185
 11 3 33.8919 19.8043 7.80661
 12 3 37.7582 20.9488 6.40649
 13 3 34.2409 19.6595 5.44009
 14 3 35.825 19.7443 4.66088
 15 3 35.0578 21.2337 5.2353
ITEM: TIMESTEP
35
ITEM: NUMBER OF ATOMS
15
ITEM: BOX BOUNDS pp pp pp xy xz yz
0.403461 70.2769 2.35733e-15
0.871099 39.3692 -1.48876
-6.94435 23.8592 1.97953e-15
ITEM: ATOMS id type xu yu zu
 1 1 37.4602 20.0923 9.18151
 2 1 36.6675 20.0402 10.3452
 3 1 35.306 19.7355 10.2703
 4 1 34.6853 19.6541 9.00803
 5 1 35.4328 19.7938 7.83531
 6 1 36.8073 19.9156 7.91185
 7 2 34.6976 19.9614 6.50645
 8 3 38.5416 20.2329 9.24557
 9 3 37.0878 20.2988 11.2895
 10 3 34.6791 19.5185 11.1356
 11 3 33.7161 19.2202 8.92592
 12 3 37.4279 20.0061 7.06992
 13 3 33.6275 19.6114 6.52723
 14 3 35.2086 19.3747 5.6253
 15 3 34.749 21.0201 6.24681
ITEM: TIMESTEP
36
ITEM: NUMBER OF ATOMS
15
ITEM: BOX BOUNDS pp pp pp xy xz yz
0.689815 70.5632 2.35733e-15
0.6164 39.1145 -1.48876
-6.94856 23.8549 1.97953e-15
ITEM: ATOMS id type xu yu zu
 1 1 37.7637 19.8322 9.25036
 2 1 36.883 19.5491 10.3233
 3 1 35.5388 19.3524 10.0469
 4 1 35.0294 19.4249 8.72097
 5 1 35.9031 19.677 7.64313
 6 1 37.2885 19.7639 7.85426
 7 2 35.3535 19.7034 6.2262
 8 3 38.7504 20.151 9.52977
 9 3 37.2217 19.633 11.3385
 10 3 34.7805 19.1174 10.852
 11 3 33.9914 19.4176 8.56166
 12 3 37.9808 19.8602 7.02815
 13 3 34.4505 19.0132 6.06044
 14 3 36.141 19.294 5.56789
 15 3 35.0751 20.7177 6.07009
ITEM: TIMESTEP
37
ITEM: NUMBER OF ATOMS
15
ITEM: BOX BOUNDS pp pp pp xy xz yz
0.453613 70.327 2.35733e-15
0.260448 38.7585 -1.48876
-7.08463 23.7189 1.97953e-15
ITEM: ATOMS id type xu yu zu
 1 1 37.4944 20.0115 8.9419
 2 1 36.7452 19.5728 10.0816
 3 1 35.4757 19.0287 9.87225
 4 1 34.9237 19.052 8.56703
 5 1 35.6641 19.4724 7.46937
 6 1 36.9831 19.9082 7.67212
 7 2 34.9724 19.5518 6.12926
 8 3 38.4574 20.5036 9.12783
 9 3 37.1546 19.5482 11.0758
 10 3 34.8739 18.6663 10.7198
 11 3 33.9589 18.5154 8.40451
 12 3 37.5025 20.4123 6.82131
 13 3 33.812 19.8179 6.15942
 14 3 35.1135 18.6381 5.61216
 15 3 35.4236 20.39 5.55844
ITEM: TIMESTEP
38
ITEM: NUMBER OF ATOMS
15
ITEM: BOX BOUNDS pp pp pp xy xz yz
0.0672641 69.9407 2.35733e-15
0.36985 38.868 -1.48876
-7.8865 22.917 1.97953e-15
ITEM: ATOMS id type xu yu zu
 1 1 37.0546 20.1813 8.35131
 2 1 36.4505 19.4426 9.35692
 3 1 35.147 18.9141 9.13923
 4 1 34.5503 19.0217 7.8931
 5 1 35.2385 19.6224 6.80671
 6 1 36.4575 20.3054 7.10966
 7 2 34.5717 19.6622 5.46457
 8 3 38.0077 20.6198 8.56508
 9 3 36.9264 19.1599 10.2673
 10 3 34.6904 18.4076 9.9553
 11 3 33.6959 18.3552 7.6707
 12 3 36.8879 20.8826 6.30863
 13 3 34.6781 20.6364 5.01399
 14 3 33.489 19.3986 5.55921
 15 3 35.0088 18.9216 4.76321
ITEM: TIMESTEP
39
ITEM: NUMBER OF ATOMS
15
ITEM: BOX BOUNDS pp pp pp xy xz yz
0.765312 70.6387 2.35733e-15
0.63055 39.1287 -1.48876
-7.24513 23.5584 1.97953e-15
ITEM: ATOMS id type xu yu zu
 1 1 37.9495 20.0915 8.72078
 2 1 37.2998 19.9532 9.90088
 3 1 35.9273 19.7394 9.92277
 4 1 35.2053 19.6596 8.79395
 5 1 35.8204 19.712 7.57123
 6 1 37.2264 19.9732 7.49925
 7 2 35.0299 19.7147 6.26948
 8 3 38.946 20.4192 8.71516
 9 3 37.8568 19.96 10.8674
 10 3 35.4756 19.5266 10.8601
 11 3 34.1944 19.5425 8.91841
 12 3 37.7092 20.1101 6.5282
 13 3 35.0599 20.7169 5.8379
 14 3 33.9468 19.4605 6.46307
 15 3 35.5291 19.0423 5.44584
ITEM: TIMESTEP
40
ITEM: NUMBER OF ATOMS
15
ITEM: BOX BOUNDS pp pp pp xy xz yz
0.485065 70.3585 2.35733e-15
0.790951 39.2891 -1.48876
-7.65057 23.1529 1.97953e-15
ITEM: ATOMS id type xu yu zu
 1 1 37.5985 20.0079 8.39384
 2 1 36.7806 19.7739 9.53836
 3 1 35.3975 19.732 9.4133
 4 1 34.7908 19.8343 8.18222
 5 1 35.6058 19.9139 7.04843
 6 1 36.9871 20.0851 7.17625
 7 2 34.8935 19.8972 5.69552
 8 3 38.622 20.1654 8.47104
 9 3 37.2652 19.5583 10.4793
 10 3 34.8206 19.5687 10.2528
 11 3 33.7103 19.8153 8.10159
 12 3 37.6309 20.2585 6.28242
 13 3 35.3994 19.1593 5.02306
 14 3 34.8287 20.9207 5.1726
 15 3 33.862 19.4567 5.73548
ITEM: TIMESTEP
41
ITEM: NUMBER OF ATOMS
15
ITEM: BOX BOUNDS pp pp pp xy xz yz
0.827114 70.7005 2.35733e-15
0.608549 39.1067 -1.48876
-7.31463 23.4889 1.97953e-15
ITEM: ATOMS id type xu yu zu
 1 1 37.7822 19.8397 9.11625
 2 1 36.746 19.5011 9.96269
 3 1 35.4849 19.3025 9.43172
 4 1 35.2382 19.5794 8.08846
 5 1 36.3067 19.8855 7.24519
 6 1 37.6161 20.0209 7.72807
 7 2 36.0117 19.9359 5.7894
 8 3 38.8002 19.8629 9.53393
 9 3 37.0589 19.1959 10.9941
 10 3 34.7098 18.9448 10.0334
 11 3 34.2162 19.4799 7.70402
 12 3 38.4283 20.0895 7.08548
 13 3 36.8987 20.0123 5.18015
 14 3 35.2915 20.7704 5.5968
 15 3 35.4345 19.0391 5.57821
ITEM: TIMESTEP
42
ITEM: NUMBER OF ATOMS
15
ITEM: BOX BOUNDS pp pp pp xy xz yz
1.16566 71.0391 2.35733e-15
0.568851 39.067 -1.48876
-7.08945 23.7141 1.97953e-15
ITEM: ATOMS id type xu yu zu
 1 1 38.3733 20.3259 8.74538
 2 1 37.832 19.7476 9.94541
 3 1 36.5096 19.2219 9.93443
 4 1 35.7517 19.2633 8.80308
 5 1 36.2656 19.7602 7.63718
 6 1 37.5673 20.3113 7.57518
 7 2 35.3626 19.9412 6.44684
 8 3 39.418 20.7324 8.70206
 9 3 38.4828 19.7248 10.8895
 10 3 36.1027 18.6825 10.8211
 11 3 34.7381 18.8559 8.86299
 12 3 37.8393 20.9008 6.73931
 13 3 35.5987 19.1381 5.7351
 14 3 35.4267 20.9533 6.01648
 15 3 34.2755 19.7354 6.68968
ITEM: TIMESTEP
43
ITEM: NUMBER OF ATOMS
15
ITEM: BOX BOUNDS pp pp pp xy xz yz
0.561813 70.4352 2.35733e-15
0.67905 39.1772 -1.48876
-7.36017 23.4433 1.97953e-15
ITEM: ATOMS id type xu yu zu
 1 1 37.633 20.0646 8.90691
 2 1 36.7528 19.6051 9.88955
 3 1 35.4282 19.2842 9.56607
 4 1 34.9149 19.4683 8.24119
 5 1 35.8192 19.8342 7.21208
 6 1 37.128 20.2051 7.56484
 7 2 35.3235 19.8834 5.8188
 8 3 38.6537 20.337 9.10474
 9 3 37.0723 19.5462 10.9455
 10 3 34.7351 18.9634 10.3849
 11 3 33.8321 19.3283 8.04588
 12 3 37.6892 20.8928 6.84107
 13 3 36.0132 19.3287 5.13766
 14 3 35.244 20.8918 5.47101
 15 3 34.3023 19.4577 5.72187
ITEM: TIMESTEP
44
ITEM: NUMBER OF ATOMS
15
ITEM: BOX BOUNDS pp pp pp xy xz yz
0.588115 70.4615 2.35733e-15
0.116449 38.6146 -1.48876
-7.45739 23.3461 1.97953e-15
ITEM: ATOMS id type xu yu zu
 1 1 37.5876 19.8931 8.7039
 2 1 36.9542 19.4775 9.84387
 3 1 35.6077 19.0126 9.79236
 4 1 34.9805 18.9207 8.54251
 5 1 35.6238 19.2475 7.38001
 6 1 36.9691 19.7403 7.45966
 7 2 34.8988 19.2405 5.99252
 8 3 38.5959 20.2652 8.72136
 9 3 37.3927 19.6494 10.7943
 10 3 35.1711 18.5738 10.7008
 11 3 33.9425 18.6282 8.47501
 12 3 37.5272 19.8187 6.60586
 13 3 35.5811 19.0404 5.09443
 14 3 34.5025 20.2045 5.76919
 15 3 34.0746 18.4658 6.00347
ITEM: TIMESTEP
45
ITEM: NUMBER OF ATOMS
15
ITEM: BOX BOUNDS pp pp pp xy xz yz
1.17121 71.0446 2.35733e-15
0.686001 39.1841 -1.48876
-8.2876 22.5159 1.97953e-15
ITEM: ATOMS id type xu yu zu
 1 1 38.1504 20.4011 7.89885
 2 1 37.387 19.942 8.95046
 3 1 36.1383 19.4866 8.7845
 4 1 35.5419 19.6489 7.54614
 5 1 36.2974 20.0769 6.39031
 6 1 37.6149 20.4413 6.60183
 7 2 35.7981 19.6985 5.00447
 8 3 39.1371 20.8196 8.10054
 9 3 37.8059 19.922 9.88666
 10 3 35.6334 19.0526 9.60652
 11 3 34.5675 19.2225 7.44949
 12 3 38.2528 20.57 5.74675
 13 3 36.5379 19.0505 4.59437
 14 3 35.7129 20.5862 4.34165
 15 3 34.7876 19.2527 5.08243
ITEM: TIMESTEP
46
ITEM: NUMBER OF ATOMS
15
ITEM: BOX BOUNDS pp pp pp xy xz yz
0.722614 70.596 2.35733e-15
1.2435 39.7416 -1.48876
-7.67023 23.1333 1.97953e-15
ITEM: ATOMS id type xu yu zu
 1 1 37.8682 20.5688 8.17816
 2 1 37.2903 20.2656 9.41122
 3 1 35.924 19.939 9.48544
 4 1 35.1235 19.9669 8.3305
 5 1 35.6997 20.3092 7.11071
 6 1 37.0704 20.5041 7.02805
 7 2 34.893 20.239 5.8193
 8 3 38.9036 20.8658 8.15143
 9 3 37.8617 20.5629 10.2922
 10 3 35.4315 19.8583 10.4837
 11 3 34.0629 19.7724 8.43225
 12 3 37.5567 20.7545 6.00811
 13 3 34.7126 21.2128 5.5132
 14 3 33.9038 19.8342 6.03413
 15 3 35.3823 19.7723 4.97934
ITEM: TIMESTEP
47
ITEM: NUMBER OF ATOMS
15
ITEM: BOX BOUNDS pp pp pp xy xz yz
1.19196 71.0654 2.35733e-15
0.832748 39.3308 -1.48876
-7.01561 23.7879 1.97953e-15
ITEM: ATOMS id type xu yu zu
 1 1 38.1951 20.357 9.25221
 2 1 37.4501 19.8633 10.2948
 3 1 36.0764 19.5914 10.0828
 4 1 35.5304 19.6408 8.77759
 5 1 36.3807 19.9043 7.68355
 6 1 37.7335 20.2275 7.92365
 7 2 35.8382 20.0082 6.33467
 8 3 39.2477 20.6407 9.43701
 9 3 37.8856 19.7266 11.3056
 10 3 35.5023 19.1472 10.8884
 11 3 34.4984 19.3706 8.60189
 12 3 38.448 20.2772 7.18973
 13 3 35.4437 21.0164 6.29724