ITEM: TIMESTEP
0
ITEM: NUMBER OF ATOMS
12
ITEM: BOX BOUNDS pp pp pp xy xz yz
0.695688 70.7448 2.36326e-15
2.1175 40.7124 -1.4925
7.92952 38.8105 1.98451e-15
ITEM: ATOMS id type xu yu zu
 1 1 35.1818 21.7774 23.0179
 2 1 36.273 22.2693 22.2969
 3 1 37.5806 21.8559 22.6593
 4 1 37.8055 21.1338 23.8654
 5 1 36.7442 20.7259 24.6125
 6 1 35.3992 20.9635 24.1887
 7 2 36.931 19.9774 25.3866
 8 2 34.2013 21.9391 22.6644
 9 2 36.1073 22.8525 21.3534
 10 2 38.4151 22.2724 22.1064
 11 2 38.7317 20.6002 24.0503
 12 2 34.6033 20.6644 24.8176
ITEM: TIMESTEP
1
ITEM: NUMBER OF ATOMS
12
ITEM: BOX BOUNDS pp pp pp xy xz yz
0.207941 70.2571 2.36326e-15
2.0914 40.6863 -1.4925
7.74097 38.6219 1.98451e-15
ITEM: ATOMS id type xu yu zu
 1 1 34.6887 21.0979 22.6285
 2 1 35.7479 21.6244 21.8096
 3 1 37.0468 21.7411 22.4014
 4 1 37.2504 21.4601 23.7447
 5 1 36.1141 20.9532 24.5309
 6 1 34.9029 20.7399 23.9363
 7 2 36.3056 20.5518 25.4845
 8 2 33.7029 21.2395 22.3041
 9 2 35.5416 22.0587 20.8784
 10 2 37.7455 22.3107 21.848
 11 2 38.2546 21.326 24.0905
 12 2 34.0699 20.467 24.5413
ITEM: TIMESTEP
2
ITEM: NUMBER OF ATOMS
12
ITEM: BOX BOUNDS pp pp pp xy xz yz
1.11104 71.1602 2.36326e-15
2.0598 40.6547 -1.4925
8.10982 38.9908 1.98451e-15
ITEM: ATOMS id type xu yu zu
 1 1 35.5683 21.2732 24.0634
 2 1 35.6815 21.4196 22.6928
 3 1 36.9342 21.6888 22.1704
 4 1 38.0987 21.6469 22.9864
 5 1 37.9996 21.3518 24.3087
 6 1 36.6993 21.1975 24.9006
 7 2 38.9022 21.3898 24.9063
 8 2 34.6609 20.8127 24.3723
 9 2 34.8167 21.1746 22.0904
 10 2 37.0467 21.8868 21.1074
 11 2 39.1028 21.9018 22.5892
 12 2 36.5907 21.0583 25.9932
ITEM: TIMESTEP
3
ITEM: NUMBER OF ATOMS
12
ITEM: BOX BOUNDS pp pp pp xy xz yz
0.0708868 70.12 2.36326e-15
1.7028 40.2977 -1.4925
7.53172 38.4127 1.98451e-15
ITEM: ATOMS id type xu yu zu
 1 1 35.1203 20.3726 24.0962
 2 1 34.5339 20.6122 22.8384
 3 1 35.279 21.1433 21.7836
 4 1 36.5999 21.4879 21.9635
 5 1 37.1845 21.1585 23.21
 6 1 36.4938 20.5356 24.2114
 7 2 38.242 21.2838 23.3171
 8 2 34.4868 20.2689 25.0123
 9 2 33.4414 20.5934 22.6757
 10 2 34.9452 21.0521 20.7585
 11 2 37.2272 21.7316 21.0698
 12 2 36.9568 20.4288 25.1859
ITEM: TIMESTEP
4
ITEM: NUMBER OF ATOMS
12
ITEM: BOX BOUNDS pp pp pp xy xz yz
0.152788 70.2019 2.36326e-15
2.1587 40.7536 -1.4925
7.30912 38.1901 1.98451e-15
ITEM: ATOMS id type xu yu zu
 1 1 34.9337 21.0457 23.6248
 2 1 34.5759 21.2359 22.3155
 3 1 35.5617 21.5387 21.3767
 4 1 36.8967 21.6075 21.8055
 5 1 37.257 21.4456 23.1363
 6 1 36.2554 21.2039 24.0735
 7 2 38.2754 21.621 23.4222
 8 2 34.1763 20.8448 24.3805
 9 2 33.5718 20.9982 22.0326
 10 2 35.3155 21.7122 20.3653
 11 2 37.5936 22.0675 21.1417
 12 2 36.4856 21.0476 25.1339
ITEM: TIMESTEP
5
ITEM: NUMBER OF ATOMS
12
ITEM: BOX BOUNDS pp pp pp xy xz yz
0.743891 70.793 2.36326e-15
2.3713 40.9662 -1.4925
8.48952 39.3705 1.98451e-15
ITEM: ATOMS id type xu yu zu
 1 1 35.3357 21.4002 24.6449
 2 1 35.33 21.6249 23.2343
 3 1 36.5095 21.8732 22.5471
 4 1 37.7346 21.8881 23.2184
 5 1 37.7243 21.8754 24.5994
 6 1 36.5451 21.6197 25.2947
 7 2 38.6229 21.8134 25.1931
 8 2 34.4259 21.2261 25.1955
 9 2 34.4065 21.5947 22.6862
 10 2 36.4394 22.1114 21.4597
 11 2 38.6218 22.0774 22.6873
 12 2 36.5295 21.6106 26.4003
ITEM: TIMESTEP
6
ITEM: NUMBER OF ATOMS
12
ITEM: BOX BOUNDS pp pp pp xy xz yz
0.167841 70.217 2.36326e-15
1.90575 40.5007 -1.4925
8.32817 39.2091 1.98451e-15
ITEM: ATOMS id type xu yu zu
 1 1 34.9002 20.785 24.5598
 2 1 34.6777 21.0847 23.2271
 3 1 35.6916 21.6348 22.4087
 4 1 36.9034 21.8262 22.9914
 5 1 37.1837 21.5686 24.3257
 6 1 36.1817 20.9849 25.1253
 7 2 38.2013 21.6407 24.7006
 8 2 34.1835 20.1529 25.0808
 9 2 33.676 20.9683 22.8122
 10 2 35.4927 21.92 21.411
 11 2 37.6965 22.2535 22.3227
 12 2 36.4132 20.6757 26.1263
ITEM: TIMESTEP
7
ITEM: NUMBER OF ATOMS
12
ITEM: BOX BOUNDS pp pp pp xy xz yz
0.21234 70.2615 2.36326e-15
1.54 40.1349 -1.4925
5.72702 36.608 1.98451e-15
ITEM: ATOMS id type xu yu zu
 1 1 35.5174 21.222 22.48
 2 1 34.5933 20.7949 21.5393
 3 1 35.0297 20.4613 20.2572
 4 1 36.4191 20.5299 19.8957
 5 1 37.337 20.872 20.8546
 6 1 36.882 21.186 22.1398
 7 2 38.3911 20.8074 20.6524
 8 2 35.211 21.6601 23.4057
 9 2 33.5752 20.752 21.6756
 10 2 34.3474 20.0148 19.6148
 11 2 36.7516 20.2116 18.9293
 12 2 37.6514 21.4889 22.8746
ITEM: TIMESTEP
8
ITEM: NUMBER OF ATOMS
12
ITEM: BOX BOUNDS pp pp pp xy xz yz
0.94089 70.99 2.36326e-15
1.7309 40.3258 -1.4925
7.95757 38.8385 1.98451e-15
ITEM: ATOMS id type xu yu zu
 1 1 36.7842 21.1408 24.7992
 2 1 35.5437 21.2871 24.1626
 3 1 35.4675 21.3336 22.7422
 4 1 36.6053 21.1688 22.0086
 5 1 37.8234 20.892 22.6468
 6 1 37.937 20.9424 24.0644
 7 2 38.727 20.5953 22.0342
 8 2 36.8825 21.2013 25.8654
 9 2 34.6351 21.3199 24.7547
 10 2 34.5743 21.5174 22.2563
 11 2 36.5207 21.1495 20.9307
 12 2 38.8491 20.5393 24.5166
ITEM: TIMESTEP
9
ITEM: NUMBER OF ATOMS
12
ITEM: BOX BOUNDS pp pp pp xy xz yz
0.835188 70.8843 2.36326e-15
1.8918 40.4867 -1.4925
6.29782 37.1788 1.98451e-15
ITEM: ATOMS id type xu yu zu
 1 1 36.6206 21.5546 23.0613
 2 1 35.3955 21.6526 22.4127
 3 1 35.3376 21.2884 21.0702
 4 1 36.439 20.7473 20.4152
 5 1 37.6399 20.6752 21.0552
 6 1 37.7896 21.1524 22.3538
 7 2 38.5663 20.4873 20.4973
 8 2 36.6722 21.8253 24.1361
 9 2 34.4799 21.8912 22.9221
 10 2 34.4773 21.4674 20.5432
 11 2 36.4352 20.5977 19.3405
 12 2 38.7347 21.0059 22.8482
ITEM: TIMESTEP
10
ITEM: NUMBER OF ATOMS
12
ITEM: BOX BOUNDS pp pp pp xy xz yz
0.692942 70.7421 2.36326e-15
1.465 40.0599 -1.4925
7.98857 38.8695 1.98451e-15
ITEM: ATOMS id type xu yu zu
 1 1 37.1224 20.9352 24.6494
 2 1 35.8017 20.4152 24.6324
 3 1 35.1404 20.3267 23.3677
 4 1 35.9029 20.5514 22.2045
 5 1 37.1101 21.1662 22.2934
 6 1 37.7208 21.3618 23.5121
 7 2 37.7433 21.2381 21.4088
 8 2 37.6557 21.1259 25.6112
 9 2 35.3346 19.9914 25.5164
 10 2 34.2514 19.7361 23.3653
 11 2 35.5233 20.2831 21.2469
 12 2 38.6761 21.7888 23.5283
ITEM: TIMESTEP
11
ITEM: NUMBER OF ATOMS
12
ITEM: BOX BOUNDS pp pp pp xy xz yz
0.11014 70.1593 2.36326e-15
1.6466 40.2415 -1.4925
7.60822 38.4892 1.98451e-15
ITEM: ATOMS id type xu yu zu
 1 1 36.2137 20.3132 24.2031
 2 1 34.9194 20.3348 23.7851
 3 1 34.5782 20.9634 22.5736
 4 1 35.5959 21.4417 21.7541
 5 1 36.9405 21.5575 22.2646
 6 1 37.1984 21.0562 23.5562
 7 2 37.7909 21.9885 21.6534
 8 2 36.3956 19.8996 25.2439
 9 2 34.1065 19.9767 24.4113
 10 2 33.5331 20.8352 22.1878
 11 2 35.349 21.9387 20.8535
 12 2 38.2288 21.043 23.8983
ITEM: TIMESTEP
12
ITEM: NUMBER OF ATOMS
12
ITEM: BOX BOUNDS pp pp pp xy xz yz
0.69404 70.7432 2.36326e-15
1.83305 40.428 -1.4925
8.03697 38.9179 1.98451e-15
ITEM: ATOMS id type xu yu zu
 1 1 35.6185 20.6041 24.5249
 2 1 35.0568 21.1143 23.2853
 3 1 35.921 21.597 22.2768
 4 1 37.2998 21.5802 22.5058
 5 1 37.8325 20.9708 23.6028
 6 1 37.0016 20.5044 24.6058
 7 2 38.8802 20.9827 23.7628
 8 2 34.9772 20.182 25.3454
 9 2 34.0495 20.9757 23.0265
 10 2 35.5067 22.079 21.4275
 11 2 37.9671 22.035 21.8185
 12 2 37.4984 20.2531 25.5274
ITEM: TIMESTEP
13
ITEM: NUMBER OF ATOMS
12
ITEM: BOX BOUNDS pp pp pp xy xz yz
0.996638 71.0458 2.36326e-15
2.22775 40.8227 -1.4925
7.81417 38.6951 1.98451e-15
ITEM: ATOMS id type xu yu zu
 1 1 36.0106 21.1347 24.3573
 2 1 35.4266 21.1384 23.0949
 3 1 36.211 21.114 21.954
 4 1 37.5768 21.3836 22.0745
 5 1 38.1467 21.6823 23.3275
 6 1 37.3736 21.4473 24.4985
 7 2 39.1397 22.1418 23.4104
 8 2 35.3741 21.2921 25.2021
 9 2 34.3952 20.9086 23.0632
 10 2 35.734 21.0402 21.0177
 11 2 38.2175 21.2858 21.1929
 12 2 37.7508 21.5367 25.4916
ITEM: TIMESTEP
14
ITEM: NUMBER OF ATOMS
12
ITEM: BOX BOUNDS pp pp pp xy xz yz
0.618288 70.6674 2.36326e-15
2.19555 40.7905 -1.4925
8.24442 39.1254 1.98451e-15
ITEM: ATOMS id type xu yu zu
 1 1 35.0939 20.9784 23.5215
 2 1 35.707 21.816 22.5548
 3 1 37.0046 22.3314 22.8075
 4 1 37.6657 21.9993 23.9736
 5 1 37.0101 21.1697 24.9121
 6 1 35.738 20.7472 24.7187
 7 2 37.5246 20.9171 25.8066
 8 2 34.0839 20.617 23.3794
 9 2 35.2964 21.8638 21.5632
 10 2 37.5447 23.0258 22.1092
 11 2 38.6943 22.3363 24.0854
 12 2 35.321 19.9602 25.3822
ITEM: TIMESTEP
15
ITEM: NUMBER OF ATOMS
12
ITEM: BOX BOUNDS pp pp pp xy xz yz
0.610842 70.66 2.36326e-15
1.8652 40.4601 -1.4925
7.50012 38.3811 1.98451e-15
ITEM: ATOMS id type xu yu zu
 1 1 34.9756 21.0282 23.0007
 2 1 35.5702 21.0174 21.7838
 3 1 36.9456 21.0338 21.6808
 4 1 37.7243 21.1961 22.9022
 5 1 37.045 21.4047 24.1127
 6 1 35.6726 21.2627 24.1617
 7 2 37.6019 21.6057 24.9948
 8 2 33.9552 20.7483 23.1025
 9 2 34.9388 20.9858 20.8861
 10 2 37.455 20.7196 20.7686
 11 2 38.8081 21.0319 22.9083
 12 2 35.0823 21.4146 25.1126
ITEM: TIMESTEP
16
ITEM: NUMBER OF ATOMS
12
ITEM: BOX BOUNDS pp pp pp xy xz yz
0.814039 70.8632 2.36326e-15
1.58225 40.1772 -1.4925
7.73472 38.6157 1.98451e-15
ITEM: ATOMS id type xu yu zu
 1 1 35.5269 20.624 24.0398
 2 1 35.349 21.3944 22.845
 3 1 36.454 21.7616 22.084
 4 1 37.7618 21.532 22.5864
 5 1 37.8906 20.6534 23.684
 6 1 36.8034 20.2019 24.4021
 7 2 38.8727 20.4463 24.1457
 8 2 34.7352 20.4929 24.7243
 9 2 34.297 21.6042 22.5099
 10 2 36.2981 22.2166 21.1515
 11 2 38.5911 22.1462 22.2792
 12 2 36.9129 19.5428 25.1989
ITEM: TIMESTEP
17
ITEM: NUMBER OF ATOMS
12
ITEM: BOX BOUNDS pp pp pp xy xz yz
0.498289 70.5474 2.36326e-15
1.9605 40.5554 -1.4925
8.26862 39.1496 1.98451e-15
ITEM: ATOMS id type xu yu zu
 1 1 35.0009 20.7005 24.1773
 2 1 35.0594 21.1385 22.8515
 3 1 36.3694 21.6611 22.377
 4 1 37.4989 21.5181 23.1819
 5 1 37.3514 21.0486 24.4818
 6 1 36.1148 20.7777 25.0169
 7 2 38.2326 20.9263 25.1176
 8 2 34.076 20.3814 24.5431
 9 2 34.1896 21.181 22.2049
 10 2 36.448 22.1345 21.3806
 11 2 38.4622 21.7748 22.8191
 12 2 36.0759 20.4146 26.0376
ITEM: TIMESTEP
18
ITEM: NUMBER OF ATOMS
12
ITEM: BOX BOUNDS pp pp pp xy xz yz
0.360388 70.4095 2.36326e-15
1.8136 40.4085 -1.4925
7.30877 38.1897 1.98451e-15
ITEM: ATOMS id type xu yu zu
 1 1 35.9965 21.1252 21.3703
 2 1 37.2143 20.703 21.9752
 3 1 37.2578 20.7071 23.381
 4 1 36.1285 21.0063 24.1571
 5 1 34.9571 21.3744 23.5542
 6 1 34.9406 21.5514 22.1481
 7 2 34.2422 21.9069 24.1378
 8 2 35.891 21.1074 20.2687
 9 2 37.9805 20.2586 21.3998
 10 2 38.203 20.4826 23.8252
 11 2 36.1594 20.8852 25.2298
 12 2 34.0594 21.9635 21.6923
ITEM: TIMESTEP
19
ITEM: NUMBER OF ATOMS
12
ITEM: BOX BOUNDS pp pp pp xy xz yz
0.137491 70.1866 2.36326e-15
1.8286 40.4235 -1.4925
6.23377 37.1147 1.98451e-15
ITEM: ATOMS id type xu yu zu
 1 1 35.2813 21.0318 20.4069
 2 1 36.6928 21.0402 20.4826
 3 1 37.3453 21.0568 21.7346
 4 1 36.6082 21.1415 22.8836
 5 1 35.2399 21.3311 22.8039
 6 1 34.5478 21.1572 21.5995
 7 2 34.6989 21.6325 23.6867
 8 2 34.7712 20.8221 19.4989
 9 2 37.182 20.6196 19.6188
 10 2 38.3776 20.7496 21.8472
 11 2 37.0078 21.0223 23.8496
 12 2 33.439 21.3178 21.587
ITEM: TIMESTEP
20
ITEM: NUMBER OF ATOMS
12
ITEM: BOX BOUNDS pp pp pp xy xz yz
0.276289 70.3254 2.36326e-15
1.9147 40.5096 -1.4925
8.55127 39.4322 1.98451e-15
ITEM: ATOMS id type xu yu zu
 1 1 34.8058 21.3604 23.4241
 2 1 35.9757 21.6713 22.6877
 3 1 37.2319 21.4232 23.2847
 4 1 37.2751 21.0791 24.6542
 5 1 36.0982 20.9458 25.4072
 6 1 34.9304 20.9831 24.7736
 7 2 36.1763 20.4649 26.3711
 8 2 33.8693 21.2361 22.9017
 9 2 35.9418 21.9594 21.6124
 10 2 38.1538 21.6517 22.8034
 11 2 38.2249 21.0469 25.1444
 12 2 34.012 20.6648 25.3036
ITEM: TIMESTEP
21
ITEM: NUMBER OF ATOMS
12
ITEM: BOX BOUNDS pp pp pp xy xz yz
0.776037 70.8252 2.36326e-15
2.1469 40.7418 -1.4925
8.04087 38.9218 1.98451e-15
ITEM: ATOMS id type xu yu zu
 1 1 35.2417 21.6649 23.0179
 2 1 36.3497 21.8513 22.1707
 3 1 37.6489 21.6819 22.6195
 4 1 37.8697 21.4523 23.973
 5 1 36.8349 21.2018 24.8052
 6 1 35.4841 21.3299 24.3484
 7 2 37.1116 20.8804 25.8327
 8 2 34.2073 21.7934 22.6134
 9 2 36.1716 21.9563 21.13
 10 2 38.4603 22.0083 21.966
 11 2 38.8864 21.5081 24.3228
 12 2 34.6581 21.349 25.0533
ITEM: TIMESTEP
22
ITEM: NUMBER OF ATOMS
12
ITEM: BOX BOUNDS pp pp pp xy xz yz
0.34434 70.3935 2.36326e-15
1.9497 40.5446 -1.4925
7.84387 38.7248 1.98451e-15
ITEM: ATOMS id type xu yu zu
 1 1 34.9625 21.6381 22.5926
 2 1 36.1831 21.8308 21.9852
 3 1 37.3357 21.4977 22.7069
 4 1 37.2453 20.9772 24.0059
 5 1 35.9841 20.8924 24.6543
 6 1 34.8611 21.1831 23.9201
 7 2 35.8017 20.2216 25.5274
 8 2 34.0535 22.078 22.162
 9 2 36.2152 22.2727 21.0413
 10 2 38.3146 21.5735 22.2808
 11 2 38.1125 20.7416 24.5546
 12 2 33.9157 20.8517 24.2442
ITEM: TIMESTEP
23
ITEM: NUMBER OF ATOMS
12
ITEM: BOX BOUNDS pp pp pp xy xz yz
0.66984 70.719 2.36326e-15
1.3402 39.9351 -1.4925
8.16652 39.0475 1.98451e-15
ITEM: ATOMS id type xu yu zu
 1 1 35.1615 20.7608 22.9875
 2 1 36.3517 20.9734 22.2959
 3 1 37.5814 20.7412 22.876
 4 1 37.6578 20.2978 24.191
 5 1 36.4789 20.0997 24.8838
 6 1 35.2076 20.3573 24.3263
 7 2 36.5898 19.8085 25.909
 8 2 34.2381 20.8982 22.4875
 9 2 36.3808 21.4668 21.305
 10 2 38.5119 21.0158 22.3573
 11 2 38.6432 20.0997 24.642
 12 2 34.307 20.0839 24.8375
ITEM: TIMESTEP
24
ITEM: NUMBER OF ATOMS
12
ITEM: BOX BOUNDS pp pp pp xy xz yz
0.895388 70.9445 2.36326e-15
1.8977 40.4926 -1.4925
7.69557 38.5765 1.98451e-15
ITEM: ATOMS id type xu yu zu
 1 1 35.3695 21.1053 22.7476
 2 1 36.2999 21.5529 21.7977
 3 1 37.6064 21.7979 22.2323
 4 1 37.99 21.5742 23.5554
 5 1 37.0603 21.082 24.4868
 6 1 35.747 20.8673 24.0795
 7 2 37.371 21.0093 25.5049
 8 2 34.3397 21.0434 22.5173
 9 2 35.9717 21.7134 20.7672
 10 2 38.3376 22.05 21.4454
 11 2 38.9927 21.8489 23.8361
 12 2 35.0317 20.3403 24.765
ITEM: TIMESTEP
25
ITEM: NUMBER OF ATOMS
12
ITEM: BOX BOUNDS pp pp pp xy xz yz
0.336687 70.3858 2.36326e-15
2.3131 40.908 -1.4925
7.59712 38.4781 1.98451e-15
ITEM: ATOMS id type xu yu zu
 1 1 34.9095 21.1896 22.2973
 2 1 36.0468 21.7313 21.6571
 3 1 37.2758 21.8772 22.358
 4 1 37.3622 21.4801 23.6909
 5 1 36.1704 21.0682 24.3522
 6 1 34.9426 21.0092 23.6845
 7 2 36.1263 20.8922 25.4578
 8 2 34.0181 21.0595 21.6736
 9 2 36.0436 21.8867 20.6174
 10 2 38.0527 22.472 21.9349
 11 2 38.1969 21.8013 24.3138
 12 2 34.0529 20.7491 24.2286
ITEM: TIMESTEP
26
ITEM: NUMBER OF ATOMS
12
ITEM: BOX BOUNDS pp pp pp xy xz yz
1.11274 71.1619 2.36326e-15
2.1078 40.7027 -1.4925
7.82792 38.7089 1.98451e-15
ITEM: ATOMS id type xu yu zu
 1 1 35.7266 21.6637 22.456
 2 1 36.9974 22.1554 22.0394
 3 1 38.1557 21.8842 22.8296
 4 1 38.026 21.1586 24.0156
 5 1 36.7869 20.8658 24.5392
 6 1 35.6053 21.1068 23.7195
 7 2 36.6976 20.1129 25.414
 8 2 34.827 22.0314 21.9618
 9 2 37.137 22.6976 21.1228
 10 2 39.1432 21.9761 22.4166
 11 2 38.8595 20.9153 24.6606
 12 2 34.6239 20.9172 24.0735
ITEM: TIMESTEP
27
ITEM: NUMBER OF ATOMS
12
ITEM: BOX BOUNDS pp pp pp xy xz yz
0.383639 70.4328 2.36326e-15
1.5854 40.1803 -1.4925
7.92287 38.8038 1.98451e-15
ITEM: ATOMS id type xu yu zu
 1 1 34.892 21.3747 22.9381
 2 1 36.009 21.6767 22.2204
 3 1 37.255 21.4069 22.6872
 4 1 37.3882 20.8174 23.9763
 5 1 36.2194 20.3414 24.6569
 6 1 34.9935 20.712 24.1946
 7 2 36.3056 19.5611 25.4452
 8 2 33.9012 21.5873 22.5181
 9 2 35.8883 22.2046 21.2815
 10 2 38.1186 21.9137 22.1802
 11 2 38.4077 20.7213 24.3337
 12 2 34.1232 20.4143 24.751
ITEM: TIMESTEP
28
ITEM: NUMBER OF ATOMS
12
ITEM: BOX BOUNDS pp pp pp xy xz yz
0.190939 70.2401 2.36326e-15
2.0986 40.6935 -1.4925
7.97817 38.8591 1.98451e-15
ITEM: ATOMS id type xu yu zu
 1 1 34.6136 21.3502 22.9892
 2 1 35.5757 21.8604 22.1655
 3 1 36.9273 21.6199 22.4451
 4 1 37.2922 21.0848 23.6447
 5 1 36.345 20.7931 24.5848
 6 1 34.9519 20.9194 24.2382
 7 2 36.7196 20.6948 25.619
 8 2 33.5623 21.3485 22.7341
 9 2 35.2459 22.2245 21.2183
 10 2 37.7009 21.9695 21.7948
 11 2 38.3612 21.0944 23.909
 12 2 34.1696 20.5676 24.912
ITEM: TIMESTEP
29
ITEM: NUMBER OF ATOMS
12
ITEM: BOX BOUNDS pp pp pp xy xz yz
0.296889 70.346 2.36326e-15
1.80805 40.403 -1.4925
7.94967 38.8306 1.98451e-15
ITEM: ATOMS id type xu yu zu
 1 1 34.7706 21.1223 23.0436
 2 1 35.7959 21.5084 22.1227
 3 1 37.0893 21.5163 22.543
 4 1 37.41 21.0939 23.8507
 5 1 36.402 20.5725 24.6603
 6 1 35.1245 20.6662 24.3101
 7 2 36.6362 20.281 25.6733
 8 2 33.737 21.2157 22.7004
 9 2 35.6375 21.7968 21.107
 10 2 37.8297 21.9796 21.9213
 11 2 38.3984 21.2401 24.2854
 12 2 34.3442 20.2314 24.9518
ITEM: TIMESTEP
30
ITEM: NUMBER OF ATOMS
12
ITEM: BOX BOUNDS pp pp pp xy xz yz
0.486139 70.5353 2.36326e-15
2.323 40.9179 -1.4925
7.96527 38.8462 1.98451e-15
ITEM: ATOMS id type xu yu zu
 1 1 34.9205 22.0616 23.282
 2 1 35.7843 22.2702 22.2441
 3 1 37.1121 21.767 22.3264
 4 1 37.5472 21.1947 23.4956
 5 1 36.6303 20.9087 24.5377
 6 1 35.3087 21.3541 24.413
 7 2 37.0306 20.5343 25.5021
 8 2 33.899 22.4787 23.2178
 9 2 35.3767 22.7066 21.3094
 10 2 37.8016 22.0286 21.5493
 11 2 38.6149 20.8937 23.5151
 12 2 34.565 21.0575 25.1554
ITEM: TIMESTEP
31
ITEM: NUMBER OF ATOMS
12
ITEM: BOX BOUNDS pp pp pp xy xz yz
0.249537 70.2987 2.36326e-15
1.75565 40.3506 -1.4925
7.97072 38.8517 1.98451e-15
ITEM: ATOMS id type xu yu zu
 1 1 34.7773 21.6188 23.2013
 2 1 35.8576 22.0505 22.43
 3 1 37.1087 21.5183 22.5678
 4 1 37.3301 20.5153 23.5477
 5 1 36.3242 20.132 24.407
 6 1 34.9902 20.6865 24.24
 7 2 36.525 19.3694 25.2045
 8 2 33.7682 22.0602 23.0238
 9 2 35.6542 22.7368 21.6179
 10 2 37.8696 21.6909 21.8232
 11 2 38.2725 19.9018 23.5825
 12 2 34.1081 20.232 24.6828
ITEM: TIMESTEP
32
ITEM: NUMBER OF ATOMS
12
ITEM: BOX BOUNDS pp pp pp xy xz yz
0.657938 70.7071 2.36326e-15
2.15865 40.7536 -1.4925
7.66497 38.5459 1.98451e-15
ITEM: ATOMS id type xu yu zu
 1 1 35.1927 21.9858 22.5616
 2 1 36.3909 22.2757 21.8879
 3 1 37.6299 21.9637 22.516
 4 1 37.6491 21.2498 23.7253
 5 1 36.4026 20.7801 24.3116
 6 1 35.2201 21.2356 23.7505
 7 2 36.3608 20.3006 25.3203
 8 2 34.2446 21.9143 22.0446
 9 2 36.3511 22.6116 20.8906
 10 2 38.5634 22.0552 21.9435
 11 2 38.6129 20.8632 24.0949
 12 2 34.3158 20.874 24.2063
ITEM: TIMESTEP
33
ITEM: NUMBER OF ATOMS
12
ITEM: BOX BOUNDS pp pp pp xy xz yz
-0.302709 69.7464 2.36326e-15
2.1463 40.7412 -1.4925
8.26322 39.1442 1.98451e-15
ITEM: ATOMS id type xu yu zu
 1 1 34.2025 21.4858 23.1605
 2 1 35.2905 21.7822 22.4073
 3 1 36.5611 21.9224 22.9958
 4 1 36.6977 21.5949 24.3508
 5 1 35.655 21.0586 25.0491
 6 1 34.352 21.0068 24.4612
 7 2 35.8048 20.7161 26.0435
 8 2 33.2926 21.3805 22.615
 9 2 35.1984 21.9498 21.3639
 10 2 37.3699 22.2145 22.3468
 11 2 37.6436 21.8346 24.8323
 12 2 33.4997 20.673 25.0537
ITEM: TIMESTEP
34
ITEM: NUMBER OF ATOMS
12
ITEM: BOX BOUNDS pp pp pp xy xz yz
0.14694 70.1961 2.36326e-15
1.75685 40.3517 -1.4925
8.05882 38.9398 1.98451e-15
ITEM: ATOMS id type xu yu zu
 1 1 34.6294 21.5518 23.1899
 2 1 35.696 21.5937 22.229
 3 1 36.9923 21.3201 22.6787
 4 1 37.2301 20.9359 24.0069
 5 1 36.136 20.7241 24.8561
 6 1 34.8334 21 24.399
 7 2 36.2257 20.3126 25.8388
 8 2 33.6388 21.674 22.843
 9 2 35.4935 21.796 21.1598
 10 2 37.7689 21.1793 21.9492
 11 2 38.1967 20.704 24.3913
 12 2 33.981 20.6956 25.0508
ITEM: TIMESTEP
35
ITEM: NUMBER OF ATOMS
12
ITEM: BOX BOUNDS pp pp pp xy xz yz
0.330286 70.3794 2.36326e-15
2.28995 40.8848 -1.4925
7.92212 38.8031 1.98451e-15
ITEM: ATOMS id type xu yu zu
 1 1 34.8269 21.9659 22.9017
 2 1 35.9517 22.2263 22.1581
 3 1 37.2613 22.0859 22.7582
 4 1 37.3955 21.4244 23.9672
 5 1 36.2207 21.0767 24.6847
 6 1 34.934 21.404 24.1978
 7 2 36.3078 20.4971 25.5853
 8 2 33.8681 22.014 22.4032
 9 2 35.8491 22.6777 21.1399
 10 2 38.116 22.2246 22.0876
 11 2 38.3341 20.9818 24.2823
 12 2 34.1022 20.9344 24.679
ITEM: TIMESTEP
36
ITEM: NUMBER OF ATOMS
12
ITEM: BOX BOUNDS pp pp pp xy xz yz
0.811289 70.8604 2.36326e-15
2.35 40.9449 -1.4925
8.16027 39.0412 1.98451e-15
ITEM: ATOMS id type xu yu zu
 1 1 35.3694 21.5901 22.8114
 2 1 36.5072 22.1749 22.2371
 3 1 37.7059 22.1817 22.955
 4 1 37.7282 21.6855 24.2853
 5 1 36.5708 21.1325 24.8851
 6 1 35.3526 21.1336 24.1355
 7 2 36.644 20.794 25.9001
 8 2 34.4921 21.5302 22.1628
 9 2 36.4911 22.693 21.3014
 10 2 38.5687 22.425 22.3745
 11 2 38.6721 21.7029 24.8183
 12 2 34.5602 20.6019 24.4955
ITEM: TIMESTEP
37
ITEM: NUMBER OF ATOMS
12
ITEM: BOX BOUNDS pp pp pp xy xz yz
0.24544 70.2946 2.36326e-15
1.68295 40.2779 -1.4925
7.60192 38.4829 1.98451e-15
ITEM: ATOMS id type xu yu zu
 1 1 34.731 20.9814 22.4995
 2 1 35.7896 21.4772 21.7196
 3 1 37.1007 21.5581 22.2653
 4 1 37.3628 21.0148 23.5153
 5 1 36.32 20.5098 24.2958
 6 1 35.0189 20.5097 23.7832
 7 2 36.4522 20.2186 25.3691
 8 2 33.7237 20.9714 22.1316
 9 2 35.6182 21.8339 20.7157
 10 2 37.9565 21.988 21.711
 11 2 38.3088 21.1008 24.0137
 12 2 34.2549 19.9728 24.3925
ITEM: TIMESTEP
38
ITEM: NUMBER OF ATOMS
12
ITEM: BOX BOUNDS pp pp pp xy xz yz
0.745188 70.7943 2.36326e-15
1.71645 40.3114 -1.4925
8.57332 39.4543 1.98451e-15
ITEM: ATOMS id type xu yu zu
 1 1 35.2899 20.6149 23.7058
 2 1 35.9582 21.3544 22.7411
 3 1 37.2216 21.8883 22.9633
 4 1 37.8002 21.6845 24.2245
 5 1 37.1262 20.9909 25.2357
 6 1 35.8509 20.4476 24.9635
 7 2 37.5878 20.8484 26.2298
 8 2 34.2954 20.294 23.556
 9 2 35.4615 21.5255 21.7978
 10 2 37.8029 22.332 22.1267
 11 2 38.7366 22.1519 24.4242
 12 2 35.4255 19.6958 25.6764
ITEM: TIMESTEP
39
ITEM: NUMBER OF ATOMS
12
ITEM: BOX BOUNDS pp pp pp xy xz yz
0.393191 70.4423 2.36326e-15
1.77135 40.3662 -1.4925
8.00112 38.8821 1.98451e-15
ITEM: ATOMS id type xu yu zu
 1 1 34.9465 20.9809 22.7901
 2 1 36.004 21.5265 22.056
 3 1 37.2696 21.5818 22.6298
 4 1 37.4203 21.3111 24.0151
 5 1 36.3088 21.0298 24.7756
 6 1 35.0843 20.7986 24.1711
 7 2 36.3724 20.8284 25.8451
 8 2 33.9327 20.8878 22.364
 9 2 35.9027 21.7838 21.0381
 10 2 38.11 21.7232 21.9673
 11 2 38.3953 21.5068 24.4477
 12 2 34.2433 20.3538 24.6672
ITEM: TIMESTEP
40
ITEM: NUMBER OF ATOMS
12
ITEM: BOX BOUNDS pp pp pp xy xz yz
0.533739 70.5829 2.36326e-15
2.0061 40.601 -1.4925
7.93557 38.8165 1.98451e-15
ITEM: ATOMS id type xu yu zu
 1 1 34.9841 21.1912 22.9108
 2 1 35.9448 21.5939 22.0268
 3 1 37.3025 21.6635 22.4453
 4 1 37.6366 21.4807 23.7773
 5 1 36.6365 21.1892 24.7042
 6 1 35.3017 20.973 24.2873
 7 2 36.8347 21.0431 25.735
 8 2 33.9292 21.1347 22.6705
 9 2 35.6388 21.8567 21.0171
 10 2 38.1252 21.7587 21.7376
 11 2 38.6799 21.5356 24.122
 12 2 34.5149 20.7504 25.0248
ITEM: TIMESTEP
41
ITEM: NUMBER OF ATOMS
12
ITEM: BOX BOUNDS pp pp pp xy xz yz
0.567537 70.6167 2.36326e-15
2.10835 40.7033 -1.4925
7.85287 38.7338 1.98451e-15
ITEM: ATOMS id type xu yu zu
 1 1 35.0517 21.6591 22.8869
 2 1 36.159 21.9533 22.0472
 3 1 37.417 21.8361 22.5521
 4 1 37.6396 21.3412 23.8618
 5 1 36.5449 20.942 24.6395
 6 1 35.2565 21.0792 24.1566
 7 2 36.6878 20.5605 25.6026
 8 2 34.0504 21.7367 22.5504
 9 2 36.0113 22.2511 20.9841
 10 2 38.2755 22.0426 21.9546
 11 2 38.6263 21.225 24.2191
 12 2 34.4036 20.7486 24.7742
ITEM: TIMESTEP
42
ITEM: NUMBER OF ATOMS
12
ITEM: BOX BOUNDS pp pp pp xy xz yz
0.30789 70.357 2.36326e-15
1.86745 40.4623 -1.4925
8.19467 39.0756 1.98451e-15
ITEM: ATOMS id type xu yu zu
 1 1 35.016 21.3203 22.7715
 2 1 36.3078 21.432 22.315
 3 1 37.4204 21.2731 23.1789
 4 1 37.1767 21.0126 24.5404
 5 1 35.8673 20.8097 24.9715
 6 1 34.7801 20.9773 24.0863
 7 2 35.716 20.5979 26.0125
 8 2 34.1943 21.5461 22.0388
 9 2 36.4959 21.7319 21.2578
 10 2 38.4159 21.479 22.8377
 11 2 38.0108 21.1525 25.2443
 12 2 33.7415 20.8082 24.3788
ITEM: TIMESTEP
43
ITEM: NUMBER OF ATOMS
12
ITEM: BOX BOUNDS pp pp pp xy xz yz
0.0930387 70.1422 2.36326e-15
1.8797 40.4746 -1.4925
8.14812 39.0291 1.98451e-15
ITEM: ATOMS id type xu yu zu
 1 1 34.6224 21.0422 22.9621
 2 1 35.7283 21.6442 22.3442
 3 1 36.923 21.8037 23.0659
 4 1 37.0486 21.2409 24.3388
 5 1 35.9857 20.5122 24.9085
 6 1 34.782 20.468 24.2508
 7 2 36.1407 20.0661 25.852
 8 2 33.7287 20.8967 22.3651
 9 2 35.7096 21.9902 21.3252
 10 2 37.7518 22.3919 22.662
 11 2 37.999 21.3715 24.831
 12 2 33.9803 19.9624 24.6313
ITEM: TIMESTEP
44
ITEM: NUMBER OF ATOMS
12
ITEM: BOX BOUNDS pp pp pp xy xz yz
0.189791 70.2389 2.36326e-15
1.74765 40.3426 -1.4925
8.38192 39.2629 1.98451e-15
ITEM: ATOMS id type xu yu zu
 1 1 34.7314 21.0756 23.184
 2 1 35.923 21.4118 22.4803
 3 1 37.1298 21.4429 23.1348
 4 1 37.2117 21.1224 24.5189
 5 1 36.0341 20.8422 25.2007
 6 1 34.8283 20.7 24.5144
 7 2 36.1078 20.7086 26.2556
 8 2 33.7941 20.9304 22.6367
 9 2 35.8407 21.4246 21.3892
 10 2 38.0335 21.7393 22.5747
 11 2 38.1271 21.13 25.0753
 12 2 33.905 20.3509 25.0305
ITEM: TIMESTEP
45
ITEM: NUMBER OF ATOMS
12
ITEM: BOX BOUNDS pp pp pp xy xz yz
0.417292 70.4664 2.36326e-15
1.8277 40.4226 -1.4925
8.62942 39.5104 1.98451e-15
ITEM: ATOMS id type xu yu zu
 1 1 35.0171 21.2199 23.2905
 2 1 36.1692 21.8173 22.8073
 3 1 37.3613 21.733 23.5591
 4 1 37.3568 21.2484 24.8257
 5 1 36.1752 20.6675 25.351
 6 1 35.0331 20.563 24.5397
 7 2 36.1946 20.245 26.3453
 8 2 34.1899 21.0377 22.5877
 9 2 36.132 22.1886 21.7945
 10 2 38.2102 22.1852 23.2515
 11 2 38.2178 21.3303 25.507
 12 2 34.1584 20.0617 24.8677
ITEM: TIMESTEP
46
ITEM: NUMBER OF ATOMS
12
ITEM: BOX BOUNDS pp pp pp xy xz yz
-0.243063 69.8061 2.36326e-15
2.0063 40.6012 -1.4925
7.50512 38.3861 1.98451e-15
ITEM: ATOMS id type xu yu zu
 1 1 34.3004 21.6401 22.3414
 2 1 35.5381 21.9682 21.7013
 3 1 36.7025 21.8158 22.3607
 4 1 36.7399 21.184 23.6389
 5 1 35.5158 20.882 24.2755
 6 1 34.3345 21.1482 23.6488
 7 2 35.5908 20.3878 25.2399
 8 2 33.3682 21.7081 21.7906
 9 2 35.5081 22.2197 20.6513
 10 2 37.662 22.0034 21.8825
 11 2 37.6873 20.9411 24.1568
 12 2 33.4322 20.7524 24.1081
ITEM: TIMESTEP
47
ITEM: NUMBER OF ATOMS
12
ITEM: BOX BOUNDS pp pp pp xy xz yz
0.54954 70.5987 2.36326e-15
2.10115 40.6961 -1.4925
8.09167 38.9726 1.98451e-15
ITEM: ATOMS id type xu yu zu
 1 1 35.0043 21.4605 23.0114
 2 1 36.0451 21.9937 22.2759
 3 1 37.349 22.0068 22.8133
 4 1 37.6115 21.4063 24.0239
 5 1 36.5615 20.8825 24.7875
 6 1 35.254 20.8921 24.2447
 7 2 36.7907 20.5371 25.7746
 8 2 34.0431 21.3441 22.5315
 9 2 35.8082 22.3562 21.2897
 10 2 38.1856 22.5158 22.3185
 11 2 38.5976 21.4606 24.4989
 12 2 34.4452 20.2814 24.6546
ITEM: TIMESTEP
48
ITEM: NUMBER OF ATOMS
12
ITEM: BOX BOUNDS pp pp pp xy xz yz
0.576838 70.626 2.36326e-15
1.8368 40.4317 -1.4925
7.98492 38.8659 1.98451e-15
ITEM: ATOMS id type xu yu zu
 1 1 35.133 21.3663 22.7696
 2 1 36.3394 21.7637 22.1569
 3 1 37.5352 21.664 22.8618
 4 1 37.556 21.0446 24.1187
 5 1 36.3468 20.6774 24.7364
 6 1 35.1787 20.8593 24.1104
 7 2 36.3591 20.2136 25.7285
 8 2 34.17 21.4758 22.2339
 9 2 36.2787 22.0549 21.1223
 10 2 38.4021 21.9236 22.3599
 11 2 38.5253 20.7496 24.5845
 12 2 34.2504 20.6953 24.5958
ITEM: TIMESTEP
49
ITEM: NUMBER OF ATOMS
12
ITEM: BOX BOUNDS pp pp pp xy xz yz
0.618239 70.6674 2.36326e-15
2.0008 40.5957 -1.4925
8.07947 38.9604 1.98451e-15
ITEM: ATOMS id type xu yu zu
 1 1 35.1104 21.4463 22.9041
 2 1 36.2569 22.031 22.3374
 3 1 37.4877 21.9013 22.9608
 4 1 37.599 21.1718 24.1555
 5 1 36.4473 20.6973 24.779
 6 1 35.1753 20.8986 24.1535
 7 2 36.5837 20.0426 25.6458
 8 2 34.2182 21.3265 22.3003
 9 2 36.1912 22.5539 21.3941
 10 2 38.3985 22.3699 22.5681
 11 2 38.5599 21.0595 24.6205
 12 2 34.2272 20.4699 24.5751
ITEM: TIMESTEP
50
ITEM: NUMBER OF ATOMS
12
ITEM: BOX BOUNDS pp pp pp xy xz yz
0.458788 70.5079 2.36326e-15
2.15385 40.7487 -1.4925
7.84527 38.7262 1.98451e-15
ITEM: ATOMS id type xu yu zu
 1 1 34.9057 21.6499 22.7923
 2 1 35.9673 22.0464 21.9988
 3 1 37.3021 21.7945 22.4076
 4 1 37.5363 21.1558 23.6783
 5 1 36.4197 20.7545 24.4469
 6 1 35.1516 20.9496 23.996
 7 2 36.582 20.2482 25.3828
 8 2 33.9195 21.8285 22.4864
 9 2 35.7908 22.6544 21.1887
 10 2 38.1579 22.2311 21.9214
 11 2 38.5397 21.1448 24.0779
 12 2 34.3664 20.4819 24.5244
ITEM: TIMESTEP
51
ITEM: NUMBER OF ATOMS
12
ITEM: BOX BOUNDS pp pp pp xy xz yz
0.431238 70.4804 2.36326e-15
2.35505 40.95 -1.4925
7.35877 38.2397 1.98451e-15
ITEM: ATOMS id type xu yu zu
 1 1 35.054 21.779 21.9838
 2 1 36.2499 22.4916 21.695
 3 1 37.3809 22.2446 22.4224
 4 1 37.323 21.3879 23.528
 5 1 36.1573 20.711 23.8252
 6 1 35.0235 20.8322 23.0053
 7 2 36.0887 20.0875 24.7298
 8 2 34.085 22.0225 21.4584
 9 2 36.257 23.2175 20.8687
 10 2 38.3191 22.7469 22.1803
 11 2 38.2047 21.2994 24.1266
 12 2 34.1265 20.2773 23.1522
ITEM: TIMESTEP
52
ITEM: NUMBER OF ATOMS
12
ITEM: BOX BOUNDS pp pp pp xy xz yz
0.384539 70.4337 2.36326e-15
1.4527 40.0476 -1.4925
8.11452 38.9955 1.98451e-15
ITEM: ATOMS id type xu yu zu
 1 1 34.9339 21.1805 23.0553
 2 1 36.1007 21.5266 22.4427
 3 1 37.3413 21.3421 23.086
 4 1 37.4001 20.656 24.2934
 5 1 36.2411 20.1518 24.8397
 6 1 34.9844 20.4871 24.2783
 7 2 36.2213 19.494 25.6352
 8 2 33.9782 21.4297 22.6245
 9 2 36.0324 22.0063 21.4748
 10 2 38.221 21.7916 22.643
 11 2 38.3325 20.5017 24.7414
 12 2 34.0141 20.1035 24.646
ITEM: TIMESTEP
53
ITEM: NUMBER OF ATOMS
12
ITEM: BOX BOUNDS pp pp pp xy xz yz
0.597437 70.6466 2.36326e-15
2.74355 41.3385 -1.4925
7.51957 38.4005 1.98451e-15
ITEM: ATOMS id type xu yu zu
 1 1 35.1096 22.1676 22.3905
 2 1 36.2527 22.4229 21.6253
 3 1 37.5299 22.1631 22.1694
 4 1 37.6363 21.8074 23.5135
 5 1 36.4954 21.4463 24.2454
 6 1 35.2493 21.6524 23.7168
 7 2 36.5686 21.181 25.2383
 8 2 34.1053 22.3134 22.0313
 9 2 36.1718 22.901 20.6818
 10 2 38.4096 22.4279 21.5737
 11 2 38.6312 21.7596 23.9304
 12 2 34.3644 21.3128 24.2548
ITEM: TIMESTEP
54
ITEM: NUMBER OF ATOMS
12
ITEM: BOX BOUNDS pp pp pp xy xz yz
0.0726873 70.1218 2.36326e-15
1.99325 40.5882 -1.4925
7.43792 38.3189 1.98451e-15
ITEM: ATOMS id type xu yu zu
 1 1 34.695 21.1413 22.0961
 2 1 35.8694 21.5836 21.5032
 3 1 37.0111 21.7672 22.2663
 4 1 36.9559 21.548 23.6804
 5 1 35.7878 21.1604 24.2729
 6 1 34.6079 20.9526 23.4731
 7 2 35.7209 21.0379 25.3604
 8 2 33.779 21.0998 21.5186
 9 2 36.0166 21.7332 20.3964
 10 2 37.9935 22.009 21.8111
 11 2 37.9075 21.5246 24.2048
 12 2 33.6935 20.5724 23.9152
ITEM: TIMESTEP
55
ITEM: NUMBER OF ATOMS
12
ITEM: BOX BOUNDS pp pp pp xy xz yz
0.60499 70.6541 2.36326e-15
2.09845 40.6934 -1.4925
8.08822 38.9692 1.98451e-15
ITEM: ATOMS id type xu yu zu
 1 1 36.1909 21.9493 22.2676
 2 1 37.4554 21.6205 22.6742
 3 1 37.675 21.2255 23.9785
 4 1 36.6195 20.7936 24.7639
 5 1 35.2928 21.0151 24.3124
 6 1 35.0748 21.5694 23.0436
 7 2 34.4349 20.7564 24.8798
 8 2 35.9718 22.2738 21.2904
 9 2 38.2716 21.7573 22.0544
 10 2 38.6748 21.2471 24.415
 11 2 36.8589 20.518 25.767
 12 2 34.0768 21.6709 22.6909
ITEM: TIMESTEP
56
ITEM: NUMBER OF ATOMS
12
ITEM: BOX BOUNDS pp pp pp xy xz yz
0.70719 70.7563 2.36326e-15
2.29 40.8849 -1.4925