ITEM: TIMESTEP
0
ITEM: NUMBER OF ATOMS
16
ITEM: BOX BOUNDS pp pp pp xy xz yz
-6.56086 63.4557 2.36216e-15
-4.20072 34.3762 -1.49181
10.7957 41.6622 1.98359e-15
ITEM: ATOMS id type xu yu zu
 1 1 28.0321 14.7717 24.3459
 2 1 29.1713 15.4487 23.7481
 3 1 30.2487 15.8678 24.5399
 4 1 30.3301 15.4429 25.822
 5 1 29.2171 14.9962 26.4857
 6 1 28.0799 14.5955 25.7592
 7 2 29.2804 14.6007 27.8509
 8 2 28.641 15.2766 28.7535
 9 3 27.191 14.5448 23.7981
 10 3 29.1213 15.7383 22.6944
 11 3 30.8698 16.5993 24.1882
 12 3 31.1956 15.5779 26.4423
 13 3 27.2653 14.1188 26.2559
 14 3 29.6152 13.5762 28.1089
 15 3 28.1321 16.193 28.4105
 16 3 28.4865 14.9137 29.7635
ITEM: TIMESTEP
1
ITEM: NUMBER OF ATOMS
16
ITEM: BOX BOUNDS pp pp pp xy xz yz
-6.95506 63.0615 2.36216e-15
-4.23582 34.3411 -1.49181
10.9898 41.8564 1.98359e-15
ITEM: ATOMS id type xu yu zu
 1 1 27.6182 14.6331 24.3833
 2 1 28.6694 15.3153 23.7591
 3 1 29.8687 15.6411 24.5096
 4 1 29.9011 15.3757 25.9087
 5 1 28.7678 14.8208 26.5343
 6 1 27.6763 14.4127 25.7378
 7 2 28.7966 14.584 27.9797
 8 2 28.7196 15.5281 28.8984
 9 3 26.7925 14.4022 23.8722
 10 3 28.4317 15.8098 22.8647
 11 3 30.4987 16.4212 24.2257
 12 3 30.8057 15.6592 26.4354
 13 3 26.8634 13.8781 26.1526
 14 3 29.1284 13.557 28.3021
 15 3 28.6234 16.5483 28.6066
 16 3 28.8817 15.3297 29.9815
ITEM: TIMESTEP
2
ITEM: NUMBER OF ATOMS
16
ITEM: BOX BOUNDS pp pp pp xy xz yz
-6.75741 63.2591 2.36216e-15
-4.21387 34.3631 -1.49181
10.404 41.2706 1.98359e-15
ITEM: ATOMS id type xu yu zu
 1 1 27.9739 14.844 23.7513
 2 1 28.9183 15.6299 23.2368
 3 1 30.0623 16.005 24.0154
 4 1 30.0708 15.6895 25.3721
 5 1 29.0014 15.0011 25.932
 6 1 28.0168 14.5236 25.1172
 7 2 29.1063 14.5256 27.3075
 8 2 29.1296 15.3039 28.339
 9 3 27.0967 14.6052 23.1792
 10 3 28.6318 16.2885 22.4255
 11 3 30.7614 16.6537 23.601
 12 3 30.8968 16.0987 25.966
 13 3 27.1412 14.0896 25.5051
 14 3 29.3083 13.4955 27.463
 15 3 29.1489 16.3325 28.1753
 16 3 29.5711 15.0077 29.2491
ITEM: TIMESTEP
3
ITEM: NUMBER OF ATOMS
16
ITEM: BOX BOUNDS pp pp pp xy xz yz
-6.84081 63.1757 2.36216e-15
-4.02272 34.5542 -1.49181
10.2296 41.0962 1.98359e-15
ITEM: ATOMS id type xu yu zu
 1 1 27.8177 15.0835 23.7012
 2 1 28.9334 15.8203 23.1647
 3 1 30.0034 16.1168 23.9443
 4 1 30.0784 15.6721 25.1956
 5 1 28.9348 15.0166 25.7928
 6 1 27.8092 14.7777 25.0666
 7 2 29.0213 14.5609 27.1947
 8 2 29.3365 15.4312 28.1105
 9 3 26.8439 15.1148 23.1941
 10 3 28.8792 16.2849 22.132
 11 3 30.7064 16.9404 23.606
 12 3 30.9828 15.934 25.7769
 13 3 26.8909 14.3371 25.5064
 14 3 28.71 13.5911 27.4103
 15 3 29.753 16.4196 27.8271
 16 3 29.2779 15.1856 29.1938
ITEM: TIMESTEP
4
ITEM: NUMBER OF ATOMS
16
ITEM: BOX BOUNDS pp pp pp xy xz yz
-7.01071 63.0058 2.36216e-15
-4.31377 34.2632 -1.49181
10.3172 41.1838 1.98359e-15
ITEM: ATOMS id type xu yu zu
 1 1 27.7409 14.4119 23.9468
 2 1 28.6106 15.256 23.2059
 3 1 29.7287 15.7865 23.8329
 4 1 29.9983 15.4291 25.2159
 5 1 29.1502 14.6251 25.8752
 6 1 28.0707 14.0763 25.2442
 7 2 29.3269 14.344 27.3283
 8 2 28.7927 15.1565 28.2749
 9 3 26.8448 13.9435 23.4521
 10 3 28.3323 15.4947 22.2025
 11 3 30.3864 16.5201 23.2868
 12 3 30.6421 16.0696 25.7779
 13 3 27.3853 13.4948 25.7637
 14 3 29.8174 13.4293 27.6471
 15 3 28.3857 16.1084 28.0285
 16 3 28.8452 14.8915 29.2985
ITEM: TIMESTEP
5
ITEM: NUMBER OF ATOMS
16
ITEM: BOX BOUNDS pp pp pp xy xz yz
-7.18146 62.8351 2.36216e-15
-4.14567 34.4313 -1.49181
11.0108 41.8773 1.98359e-15
ITEM: ATOMS id type xu yu zu
 1 1 27.4304 14.2502 24.7765
 2 1 28.3019 14.9841 23.9412
 3 1 29.5565 15.4426 24.4141
 4 1 29.7843 15.4347 25.8049
 5 1 28.8934 14.7555 26.6649
 6 1 27.7311 14.0756 26.1122
 7 2 29.1114 14.7393 28.1534
 8 2 28.7984 15.7984 28.8726
 9 3 26.7063 13.6037 24.335
 10 3 28.0322 15.0862 22.9321
 11 3 30.1095 16.0892 23.8746
 12 3 30.4391 16.1824 26.1833
 13 3 26.9584 13.5621 26.7119
 14 3 29.5853 13.8963 28.6463
 15 3 28.5743 16.7235 28.3517
 16 3 28.9095 15.8162 29.956
ITEM: TIMESTEP
6
ITEM: NUMBER OF ATOMS
16
ITEM: BOX BOUNDS pp pp pp xy xz yz
-5.70866 64.3079 2.36216e-15
-3.85452 34.7224 -1.49181
10.495 41.3616 1.98359e-15
ITEM: ATOMS id type xu yu zu
 1 1 29.434 14.9416 23.7682
 2 1 30.5703 15.6258 23.5387
 3 1 31.1369 16.3414 24.535
 4 1 30.8333 16.085 25.8409
 5 1 29.8078 15.1797 26.1154
 6 1 29.0431 14.6602 25.0796
 7 2 29.397 14.8896 27.5529
 8 2 29.1917 15.8312 28.4548
 9 3 28.9414 14.4999 22.9372
 10 3 30.8447 15.9063 22.4947
 11 3 31.9422 17.0179 24.3578
 12 3 31.4739 16.4839 26.6124
 13 3 28.1488 13.9555 25.2259
 14 3 29.0878 13.85 27.8166
 15 3 29.5858 16.8447 28.3631
 16 3 28.6139 15.6201 29.3619
ITEM: TIMESTEP
7
ITEM: NUMBER OF ATOMS
16
ITEM: BOX BOUNDS pp pp pp xy xz yz
-6.63111 63.3854 2.36216e-15
-4.18102 34.3959 -1.49181
10.7234 41.5899 1.98359e-15
ITEM: ATOMS id type xu yu zu
 1 1 27.8798 14.9253 24.3218
 2 1 28.9782 15.4147 23.6359
 3 1 30.1962 15.7338 24.3183
 4 1 30.2317 15.48 25.6991
 5 1 29.133 14.9176 26.3673
 6 1 27.9792 14.5975 25.6425
 7 2 29.1468 14.6882 27.8296
 8 2 29.7617 15.5806 28.6512
 9 3 27.0124 14.5889 23.7234
 10 3 28.8723 15.7316 22.594
 11 3 31.1068 15.9991 23.7988
 12 3 31.2337 15.4761 26.1582
 13 3 27.074 14.2171 26.1306
 14 3 28.4944 13.9067 28.2756
 15 3 30.4582 16.3082 28.2821
 16 3 29.655 15.5196 29.7193
ITEM: TIMESTEP
8
ITEM: NUMBER OF ATOMS
16
ITEM: BOX BOUNDS pp pp pp xy xz yz
-6.28146 63.7351 2.36216e-15
-3.83677 34.7402 -1.49181
10.7823 41.6489 1.98359e-15
ITEM: ATOMS id type xu yu zu
 1 1 28.535 15.0009 24.1332
 2 1 29.611 15.8333 23.7027
 3 1 30.4416 16.3626 24.6897
 4 1 30.2847 15.9675 26.0293
 5 1 29.2559 15.1654 26.3944
 6 1 28.4814 14.5349 25.4634
 7 2 29.0582 14.9079 27.8585
 8 2 29.1531 15.7968 28.8088
 9 3 27.6987 14.7764 23.3951
 10 3 29.7352 16.1099 22.6026
 11 3 31.3087 16.9886 24.4246
 12 3 30.9405 16.3471 26.7426
 13 3 27.6367 14.0215 25.7849
 14 3 28.8231 13.9148 28.1465
 15 3 29.2212 16.8425 28.5532
 16 3 28.9945 15.4663 29.8286
ITEM: TIMESTEP
9
ITEM: NUMBER OF ATOMS
16
ITEM: BOX BOUNDS pp pp pp xy xz yz
-6.66996 63.3466 2.36216e-15
-4.28532 34.2916 -1.49181
10.6205 41.4871 1.98359e-15
ITEM: ATOMS id type xu yu zu
 1 1 27.8228 14.9224 24.2265
 2 1 28.9408 15.3635 23.4709
 3 1 30.1596 15.6475 24.1014
 4 1 30.302 15.4813 25.5005
 5 1 29.1945 15.0536 26.2608
 6 1 27.9092 14.904 25.6356
 7 2 29.3762 14.5795 27.6108
 8 2 29.5501 15.4195 28.5968
 9 3 26.8599 14.9724 23.7676
 10 3 28.7857 15.6002 22.4882
 11 3 31.0081 15.8999 23.4722
 12 3 31.3085 15.5475 25.9227
 13 3 26.9526 14.603 26.201
 14 3 29.3835 13.5251 27.7475
 15 3 29.6342 16.4812 28.4112
 16 3 29.5172 15.0849 29.6194
ITEM: TIMESTEP
10
ITEM: NUMBER OF ATOMS
16
ITEM: BOX BOUNDS pp pp pp xy xz yz
-6.18216 63.8344 2.36216e-15
-3.81457 34.7624 -1.49181
11.0191 41.8856 1.98359e-15
ITEM: ATOMS id type xu yu zu
 1 1 28.5933 14.9584 24.4761
 2 1 29.4544 15.8291 23.8569
 3 1 30.4834 16.4212 24.6448
 4 1 30.5336 16.2034 26.0543
 5 1 29.6927 15.2336 26.6055
 6 1 28.7832 14.6038 25.837
 7 2 29.7912 14.8982 28.0568
 8 2 29.1311 15.6625 28.9381
 9 3 27.8463 14.4626 23.9617
 10 3 29.2247 16.2117 22.9099
 11 3 31.0494 17.2327 24.1944
 12 3 31.2977 16.6291 26.5772
 13 3 28.3033 13.7151 26.1388
 14 3 30.4498 14.0963 28.4093
 15 3 28.5792 16.5774 28.6532
 16 3 29.1608 15.3958 29.9948
ITEM: TIMESTEP
11
ITEM: NUMBER OF ATOMS
16
ITEM: BOX BOUNDS pp pp pp xy xz yz
-6.96171 63.0548 2.36216e-15
-4.10557 34.4714 -1.49181
10.4946 41.3611 1.98359e-15
ITEM: ATOMS id type xu yu zu
 1 1 27.7413 14.4708 24.055
 2 1 28.6034 15.4201 23.3777
 3 1 29.5243 16.2124 24.0853
 4 1 29.7175 15.9088 25.4404
 5 1 28.9171 14.9537 26.1275
 6 1 27.9112 14.2405 25.4212
 7 2 29.1479 14.6718 27.5859
 8 2 28.91 15.599 28.4647
 9 3 26.9846 13.9518 23.4952
 10 3 28.3139 15.6529 22.3564
 11 3 30.2571 16.8496 23.5526
 12 3 30.6003 16.3514 25.9878
 13 3 27.2784 13.5162 25.9475
 14 3 29.4788 13.7098 27.9317
 15 3 28.7978 16.6013 28.0979
 16 3 29.1286 15.4124 29.4993
ITEM: TIMESTEP
12
ITEM: NUMBER OF ATOMS
16
ITEM: BOX BOUNDS pp pp pp xy xz yz
-6.82761 63.1889 2.36216e-15
-4.43802 34.1389 -1.49181
10.3281 41.1947 1.98359e-15
ITEM: ATOMS id type xu yu zu
 1 1 27.6387 14.4284 24.2924
 2 1 28.4219 15.1013 23.3081
 3 1 29.6453 15.6051 23.6508
 4 1 30.1146 15.5033 24.9717
 5 1 29.2441 14.9846 25.9963
 6 1 27.9707 14.4988 25.6528
 7 2 29.6234 14.953 27.3807
 8 2 28.9851 15.6641 28.3129
 9 3 26.8305 13.7534 23.987
 10 3 28.0569 15.0865 22.2496
 11 3 30.3117 15.9475 22.8725
 12 3 31.0226 15.8929 25.275
 13 3 27.4037 13.9661 26.3654
 14 3 30.4698 14.3937 27.657
 15 3 27.9306 15.9327 28.1998
 16 3 29.4751 15.7513 29.2732
ITEM: TIMESTEP
13
ITEM: NUMBER OF ATOMS
16
ITEM: BOX BOUNDS pp pp pp xy xz yz
-6.43976 63.5768 2.36216e-15
-3.99972 34.5772 -1.49181
10.7392 41.6057 1.98359e-15
ITEM: ATOMS id type xu yu zu
 1 1 28.287 15.209 24.1289
 2 1 29.3066 16.0416 23.6016
 3 1 30.4079 16.3201 24.3871
 4 1 30.4408 15.9533 25.7463
 5 1 29.3976 15.2029 26.3189
 6 1 28.377 14.7366 25.46
 7 2 29.4891 14.725 27.7386
 8 2 29.2338 15.5709 28.782
 9 3 27.4314 15.0113 23.5462
 10 3 29.2529 16.3717 22.5654
 11 3 31.1496 16.9114 24.043
 12 3 31.1974 16.3228 26.5108
 13 3 27.5351 14.1774 25.8965
 14 3 29.4349 13.6661 27.8899
 15 3 29.0014 16.6755 28.6283
 16 3 29.2915 15.1728 29.7795
ITEM: TIMESTEP
14
ITEM: NUMBER OF ATOMS
16
ITEM: BOX BOUNDS pp pp pp xy xz yz
-6.78981 63.2267 2.36216e-15
-4.17942 34.3975 -1.49181
11.1211 41.9876 1.98359e-15
ITEM: ATOMS id type xu yu zu
 1 1 27.7242 14.6936 24.8593
 2 1 28.8319 15.1581 24.1021
 3 1 30.0097 15.5015 24.6811
 4 1 30.195 15.2838 26.0213
 5 1 29.1108 14.7976 26.828
 6 1 27.8962 14.5099 26.2149
 7 2 29.2162 14.8848 28.2718
 8 2 28.3765 15.6579 28.9785
 9 3 26.8269 14.3396 24.3371
 10 3 28.7144 15.1209 23.0477
 11 3 30.8674 15.8659 24.095
 12 3 31.1018 15.5487 26.5422
 13 3 27.1551 13.9553 26.7563
 14 3 30.1073 14.5059 28.732
 15 3 27.6653 16.2628 28.5017
 16 3 28.4232 15.5735 30.061
ITEM: TIMESTEP
15
ITEM: NUMBER OF ATOMS
16
ITEM: BOX BOUNDS pp pp pp xy xz yz
-6.48901 63.5275 2.36216e-15
-3.91467 34.6623 -1.49181
10.7145 41.5811 1.98359e-15
ITEM: ATOMS id type xu yu zu
 1 1 28.2664 14.5262 24.4872
 2 1 29.0443 15.3028 23.5842
 3 1 30.0921 16.0725 24.079
 4 1 30.3012 16.2219 25.4279
 5 1 29.4693 15.5084 26.3602
 6 1 28.5478 14.5322 25.8942
 7 2 29.7938 15.5784 27.8567
 8 2 28.9317 15.2112 28.7799
 9 3 27.4338 13.9459 24.1148
 10 3 28.7309 15.3422 22.522
 11 3 30.675 16.7302 23.4331
 12 3 31.0965 16.8086 25.8084
 13 3 27.9436 13.939 26.5284
 14 3 30.8528 15.7963 28.1595
 15 3 27.8637 15.0883 28.5168
 16 3 29.3383 15.01 29.7736
ITEM: TIMESTEP
16
ITEM: NUMBER OF ATOMS
16
ITEM: BOX BOUNDS pp pp pp xy xz yz
-6.33376 63.6828 2.36216e-15
-4.19272 34.3842 -1.49181
10.2726 41.1392 1.98359e-15
ITEM: ATOMS id type xu yu zu
 1 1 28.2645 15.1748 23.9763
 2 1 29.3834 15.663 23.2472
 3 1 30.5525 16.1027 23.9084
 4 1 30.5158 16.1181 25.3103
 5 1 29.4039 15.6543 26.0178
 6 1 28.297 15.1697 25.3319
 7 2 29.3738 15.6704 27.4676
 8 2 29.1488 14.5227 28.1342
 9 3 27.4851 14.6673 23.4919
 10 3 29.4566 15.35 22.1907
 11 3 31.4091 16.5419 23.4222
 12 3 31.381 16.5102 25.8497
 13 3 27.4317 14.7893 25.8421
 14 3 29.4694 16.5863 28.0008
 15 3 28.9233 13.6052 27.6113
 16 3 28.8731 14.5016 29.2211
ITEM: TIMESTEP
17
ITEM: NUMBER OF ATOMS
16
ITEM: BOX BOUNDS pp pp pp xy xz yz
-6.52351 63.493 2.36216e-15
-4.54112 34.0358 -1.49181
9.8101 40.6767 1.98359e-15
ITEM: ATOMS id type xu yu zu
 1 1 28.3054 14.6891 23.1726
 2 1 29.5614 14.9964 22.703
 3 1 30.5116 15.5137 23.5988
 4 1 30.2323 15.4404 25.0111
 5 1 28.9879 14.9629 25.4845
 6 1 28.0139 14.5969 24.5512
 7 2 28.6043 15.1779 26.8983
 8 2 28.8464 14.2689 27.8405
 9 3 27.5025 14.3175 22.4561
 10 3 29.7419 15.1137 21.6419
 11 3 31.399 16.0384 23.246
 12 3 31.0831 15.6361 25.7108
 13 3 27.0623 14.2538 24.8918
 14 3 28.2366 16.166 27.2216
 15 3 29.3541 13.3287 27.5987
 16 3 28.5825 14.4419 28.8449
ITEM: TIMESTEP
18
ITEM: NUMBER OF ATOMS
16
ITEM: BOX BOUNDS pp pp pp xy xz yz
-6.66966 63.3469 2.36216e-15
-3.97307 34.6039 -1.49181
10.1159 40.9824 1.98359e-15
ITEM: ATOMS id type xu yu zu
 1 1 28.0146 15.0258 23.8763
 2 1 28.8557 15.7052 23.0263
 3 1 29.9548 16.3686 23.5453
 4 1 30.1729 16.4139 24.95
 5 1 29.2202 15.882 25.811
 6 1 28.1223 15.1119 25.2804
 7 2 29.4745 15.8761 27.2374
 8 2 29.3016 14.7351 27.9932
 9 3 27.1025 14.6324 23.4704
 10 3 28.5976 15.8646 21.9804
 11 3 30.7063 16.8381 22.8474
 12 3 31.0665 16.8126 25.324
 13 3 27.3936 14.6058 25.972
 14 3 29.9354 16.7509 27.6444
 15 3 28.9536 13.7927 27.5638
 16 3 29.4354 14.8296 29.1179
ITEM: TIMESTEP
19
ITEM: NUMBER OF ATOMS
16
ITEM: BOX BOUNDS pp pp pp xy xz yz
-6.76436 63.2522 2.36216e-15
-3.87142 34.7055 -1.49181
10.0142 40.8807 1.98359e-15
ITEM: ATOMS id type xu yu zu
 1 1 27.7583 14.8704 23.9766
 2 1 28.6705 15.3025 22.9548
 3 1 29.8664 15.9625 23.3162
 4 1 30.1817 16.1445 24.6905
 5 1 29.3667 15.6034 25.7159
 6 1 28.1071 15.0195 25.3568
 7 2 29.7866 15.717 27.1006
 8 2 29.4671 14.7861 28.0137
 9 3 26.9706 14.22 23.7043
 10 3 28.3461 15.2943 21.9126
 11 3 30.3728 16.5003 22.6057
 12 3 31.009 16.7814 24.8959
 13 3 27.3791 14.629 26.1043
 14 3 30.6454 16.3201 27.3332
 15 3 28.6851 14.0527 27.8169
 16 3 29.8018 14.8776 28.9823
ITEM: TIMESTEP
20
ITEM: NUMBER OF ATOMS
16
ITEM: BOX BOUNDS pp pp pp xy xz yz
-6.60591 63.4106 2.36216e-15
-3.86927 34.7077 -1.49181
10.5717 41.4382 1.98359e-15
ITEM: ATOMS id type xu yu zu
 1 1 28.0002 15.398 24.1745
 2 1 29.1337 15.7861 23.416
 3 1 30.3028 16.188 24.0751
 4 1 30.3695 16.0428 25.4719
 5 1 29.2702 15.5313 26.2527
 6 1 28.1145 15.139 25.566
 7 2 29.1836 15.8602 27.7619
 8 2 28.8574 14.985 28.6173
 9 3 27.0383 15.1829 23.6254
 10 3 29.1038 15.6306 22.2987
 11 3 31.1554 16.495 23.503
 12 3 31.2582 16.4968 25.9671
 13 3 27.2911 14.6656 26.043
 14 3 29.3144 16.8595 28.1358
 15 3 28.6927 13.9789 28.3327
 16 3 28.7443 15.2349 29.7112
ITEM: TIMESTEP
21
ITEM: NUMBER OF ATOMS
16
ITEM: BOX BOUNDS pp pp pp xy xz yz
-7.11991 62.8966 2.36216e-15
-3.36502 35.2119 -1.49181
10.5723 41.4388 1.98359e-15
ITEM: ATOMS id type xu yu zu
 1 1 27.318 15.4579 24.3938
 2 1 28.3704 15.7143 23.4768
 3 1 29.6134 16.0935 23.9312
 4 1 29.8682 16.1656 25.3077
 5 1 28.846 15.9737 26.1874
 6 1 27.5675 15.5947 25.7389
 7 2 29.0959 16.3256 27.6021
 8 2 28.8472 15.4001 28.5357
 9 3 26.3781 15.1858 23.9797
 10 3 28.1574 15.5681 22.4835
 11 3 30.4418 16.2713 23.1904
 12 3 30.8904 16.2251 25.6535
 13 3 26.7443 15.4861 26.4234
 14 3 29.7045 17.224 27.9085
 15 3 28.0809 14.6229 28.3811
 16 3 29.2032 15.5404 29.5276
ITEM: TIMESTEP
22
ITEM: NUMBER OF ATOMS
16
ITEM: BOX BOUNDS pp pp pp xy xz yz
-6.75206 63.2645 2.36216e-15
-3.30277 35.2742 -1.49181
10.3505 41.217 1.98359e-15
ITEM: ATOMS id type xu yu zu
 1 1 27.7504 15.3698 24.1861
 2 1 28.7791 15.7437 23.2244
 3 1 29.9746 16.3118 23.698
 4 1 30.1831 16.3954 25.0817
 5 1 29.2194 16.153 25.9857
 6 1 27.9909 15.5929 25.5365
 7 2 29.4862 16.4281 27.4049
 8 2 29.3185 15.4434 28.3468
 9 3 26.8243 14.9918 23.8412
 10 3 28.626 15.52 22.1653
 11 3 30.655 16.8056 23.0495
 12 3 31.1799 16.8085 25.4044
 13 3 27.2301 15.3518 26.2074
 14 3 29.7818 17.4751 27.6842
 15 3 28.9197 14.4963 28.0753
 16 3 29.558 15.6254 29.4022
ITEM: TIMESTEP
23
ITEM: NUMBER OF ATOMS
16
ITEM: BOX BOUNDS pp pp pp xy xz yz
-6.81126 63.2053 2.36216e-15
-3.86992 34.707 -1.49181
10.8557 41.7223 1.98359e-15
ITEM: ATOMS id type xu yu zu
 1 1 27.8518 14.5486 24.8928
 2 1 28.4892 15.2218 23.8523
 3 1 29.4837 16.1521 24.1171
 4 1 29.9673 16.3033 25.3976
 5 1 29.3059 15.656 26.4641
 6 1 28.16 14.8524 26.2316
 7 2 29.8096 15.8997 27.8127
 8 2 29.8103 14.9234 28.7557
 9 3 27.0631 13.839 24.7209
 10 3 28.1121 15.0135 22.8453
 11 3 29.8208 16.8833 23.3565
 12 3 30.8227 16.9981 25.6265
 13 3 27.7433 14.2709 27.033
 14 3 30.2018 16.9046 28.0289
 15 3 29.5923 13.8792 28.4995
 16 3 30.2677 15.1199 29.7327
ITEM: TIMESTEP
24
ITEM: NUMBER OF ATOMS
16
ITEM: BOX BOUNDS pp pp pp xy xz yz
-6.97521 63.0413 2.36216e-15
-3.89497 34.682 -1.49181
10.7513 41.6179 1.98359e-15
ITEM: ATOMS id type xu yu zu
 1 1 27.7264 14.7119 24.4498
 2 1 28.3138 15.6361 23.576
 3 1 29.3784 16.3833 24.0328
 4 1 29.7548 16.3447 25.4036
 5 1 29.005 15.6098 26.3409
 6 1 28.0559 14.7011 25.8717
 7 2 29.3756 15.7402 27.8092
 8 2 29.2448 14.6952 28.6569
 9 3 26.95 14.0646 24.0612
 10 3 27.8316 15.8604 22.6622
 11 3 29.8842 17.0995 23.3525
 12 3 30.6079 16.8041 25.7757
 13 3 27.377 14.143 26.5216
 14 3 29.5862 16.7006 28.2213
 15 3 29.1103 13.6875 28.2805
 16 3 29.439 14.9074 29.707
ITEM: TIMESTEP
25
ITEM: NUMBER OF ATOMS
16
ITEM: BOX BOUNDS pp pp pp xy xz yz
-6.87176 63.1448 2.36216e-15
-4.02102 34.5559 -1.49181
10.3475 41.214 1.98359e-15
ITEM: ATOMS id type xu yu zu
 1 1 27.7838 15.0044 24.0752
 2 1 28.8117 15.7009 23.3182
 3 1 29.8744 16.346 23.9951
 4 1 29.9856 16.1531 25.3883
 5 1 28.9086 15.5592 26.1207
 6 1 27.8055 14.9972 25.4396
 7 2 28.9075 15.603 27.5773
 8 2 28.9335 14.5003 28.3147
 9 3 27.0615 14.3609 23.4625
 10 3 28.8089 15.6301 22.1896
 11 3 30.5356 16.9653 23.5048
 12 3 30.7545 16.7331 25.963
 13 3 27.0103 14.5067 26.0072
 14 3 28.8574 16.5564 28.0279
 15 3 29.2572 13.5696 27.8573
 16 3 28.7124 14.4998 29.3719
ITEM: TIMESTEP
26
ITEM: NUMBER OF ATOMS
16
ITEM: BOX BOUNDS pp pp pp xy xz yz
-6.46846 63.5481 2.36216e-15
-4.06557 34.5114 -1.49181
10.1226 40.9892 1.98359e-15
ITEM: ATOMS id type xu yu zu
 1 1 28.1517 14.843 23.8536
 2 1 29.0378 15.5785 23.0259
 3 1 30.0951 16.2124 23.6259
 4 1 30.3154 16.1767 25.0362
 5 1 29.393 15.5568 25.8735
 6 1 28.3072 14.8394 25.2523
 7 2 29.4181 15.765 27.3183
 8 2 29.6233 14.7293 28.0762
 9 3 27.3156 14.4608 23.3789
 10 3 28.9552 15.5483 21.9586
 11 3 30.9156 16.5914 23.0291
 12 3 31.2558 16.514 25.4306
 13 3 27.5935 14.324 25.9333
 14 3 29.6802 16.7171 27.7295
 15 3 29.3388 13.7287 27.692
 16 3 29.8957 14.8415 29.1532
ITEM: TIMESTEP
27
ITEM: NUMBER OF ATOMS
16
ITEM: BOX BOUNDS pp pp pp xy xz yz
-6.75936 63.2572 2.36216e-15
-3.55187 35.0251 -1.49181
11.2392 42.1058 1.98359e-15
ITEM: ATOMS id type xu yu zu
 1 1 27.9319 14.7772 25.2647
 2 1 28.6441 15.3656 24.23
 3 1 29.7332 16.2744 24.463
 4 1 30.1753 16.4735 25.7587
 5 1 29.3794 16.0344 26.8214
 6 1 28.2577 15.1685 26.5946
 7 2 29.7807 16.3498 28.1711
 8 2 29.8557 15.4112 29.112
 9 3 27.1386 14.1195 25.0894
 10 3 28.5046 14.9937 23.2535
 11 3 30.2497 16.7995 23.6425
 12 3 30.851 17.3137 25.9514
 13 3 27.6773 14.8509 27.4339
 14 3 30.1627 17.3537 28.4211
 15 3 29.6534 14.3952 28.8617
 16 3 30.2188 15.627 30.0915
ITEM: TIMESTEP
28
ITEM: NUMBER OF ATOMS
16
ITEM: BOX BOUNDS pp pp pp xy xz yz
-6.51031 63.5062 2.36216e-15
-3.13027 35.4467 -1.49181
10.056 40.9225 1.98359e-15
ITEM: ATOMS id type xu yu zu
 1 1 28.3439 15.8529 23.6209
 2 1 29.119 16.8273 23.0144
 3 1 30.1309 17.4476 23.7178
 4 1 30.3388 17.0871 25.0199
 5 1 29.4531 16.2776 25.6746
 6 1 28.4865 15.6212 24.9817
 7 2 29.5327 16.2634 27.1252
 8 2 29.4591 15.1192 27.8739
 9 3 27.4193 15.4613 23.199
 10 3 28.9358 17.0994 21.9779
 11 3 30.7542 18.1859 23.2354
 12 3 31.0684 17.705 25.6257
 13 3 27.7987 15.0225 25.4659
 14 3 29.6891 17.2252 27.6412
 15 3 29.38 14.1305 27.3879
 16 3 29.6148 15.1294 29.0006
ITEM: TIMESTEP
29
ITEM: NUMBER OF ATOMS
16
ITEM: BOX BOUNDS pp pp pp xy xz yz
-6.51556 63.501 2.36216e-15
-4.00697 34.57 -1.49181
10.2902 41.1567 1.98359e-15
ITEM: ATOMS id type xu yu zu
 1 1 28.0987 15.279 23.9637
 2 1 29.1028 16.1517 23.414
 3 1 30.1685 16.5839 24.2201
 4 1 30.3664 16.0345 25.4666
 5 1 29.2461 15.4516 26.0593
 6 1 28.1788 14.8916 25.2866
 7 2 29.2418 15.2877 27.5145
 8 2 29.0293 14.135 28.1029
 9 3 27.2828 14.921 23.3547
 10 3 29.1424 16.3949 22.3622
 11 3 30.9137 17.2889 23.8029
 12 3 31.1944 16.3778 26.0025
 13 3 27.3549 14.253 25.6595
 14 3 29.4423 16.1938 28.0976
 15 3 28.6839 13.2741 27.5609
 16 3 29.3974 14.0804 29.0847
ITEM: TIMESTEP
30
ITEM: NUMBER OF ATOMS
16
ITEM: BOX BOUNDS pp pp pp xy xz yz
-6.40606 63.6105 2.36216e-15
-4.21382 34.3631 -1.49181
10.3493 41.2158 1.98359e-15
ITEM: ATOMS id type xu yu zu
 1 1 28.189 15.2454 24.2182
 2 1 29.0554 15.8133 23.2874
 3 1 30.2833 16.2993 23.7316
 4 1 30.6245 16.1522 25.0689
 5 1 29.777 15.4798 26.0183
 6 1 28.5397 15.0485 25.5582
 7 2 30.1273 15.5228 27.5063
 8 2 29.8374 14.5205 28.2859
 9 3 27.1171 15.123 23.8754
 10 3 28.7037 15.9754 22.2395
 11 3 30.9687 16.5801 23.0091
 12 3 31.5791 16.4713 25.3615
 13 3 27.9169 14.5074 26.2395
 14 3 30.5337 16.415 27.959
 15 3 29.5439 13.5692 27.8486
 16 3 30.1513 14.5667 29.3256
ITEM: TIMESTEP
31
ITEM: NUMBER OF ATOMS
16
ITEM: BOX BOUNDS pp pp pp xy xz yz
-6.79401 63.2225 2.36216e-15
-3.82702 34.7499 -1.49181
10.3195 41.1861 1.98359e-15
ITEM: ATOMS id type xu yu zu
 1 1 27.7277 14.7354 24.209
 2 1 28.5386 15.1955 23.2245
 3 1 29.7331 15.8655 23.5248
 4 1 30.1718 15.9514 24.8517
 5 1 29.3752 15.4136 25.8972
 6 1 28.2 14.7502 25.5336
 7 2 29.6124 15.9545 27.2709
 8 2 29.5986 15.0754 28.3467
 9 3 26.879 14.1183 23.8893
 10 3 28.3162 14.9108 22.192
 11 3 30.1806 16.541 22.8318
 12 3 31.0413 16.5084 25.1645
 13 3 27.6661 14.1344 26.3164
 14 3 30.1048 16.9098 27.3728
 15 3 29.4244 14.0131 28.1983
 16 3 29.8534 15.4448 29.3136
ITEM: TIMESTEP
32
ITEM: NUMBER OF ATOMS
16
ITEM: BOX BOUNDS pp pp pp xy xz yz
-7.08026 62.9363 2.36216e-15
-4.13217 34.4448 -1.49181
10.2661 41.1327 1.98359e-15
ITEM: ATOMS id type xu yu zu
 1 1 27.4384 14.7034 24.147
 2 1 28.2571 15.384 23.191
 3 1 29.4061 16.0751 23.5962
 4 1 29.8013 16.0765 24.9553
 5 1 28.9644 15.4968 25.8878
 6 1 27.8834 14.6488 25.473
 7 2 29.2751 15.6843 27.307
 8 2 29.3139 14.619 28.1738
 9 3 26.5456 14.1917 23.85
 10 3 28.0642 15.2471 22.1523
 11 3 30.0086 16.6253 22.8786
 12 3 30.8022 16.3811 25.2599
 13 3 27.1397 14.3582 26.1826
 14 3 29.609 16.6964 27.5798
 15 3 29.2916 13.6162 27.7539
 16 3 29.52 14.7618 29.2465
ITEM: TIMESTEP
33
ITEM: NUMBER OF ATOMS
16
ITEM: BOX BOUNDS pp pp pp xy xz yz
-6.67576 63.3408 2.36216e-15
-3.96602 34.6109 -1.49181
10.1011 40.9677 1.98359e-15
ITEM: ATOMS id type xu yu zu
 1 1 27.9517 14.9869 23.9053
 2 1 28.8169 15.6434 22.9697
 3 1 29.9319 16.2399 23.4558
 4 1 30.2786 16.0945 24.8061
 5 1 29.4206 15.5556 25.7235
 6 1 28.2022 15.0008 25.2808
 7 2 29.6761 15.8301 27.1693
 8 2 29.5851 14.8578 28.1062
 9 3 26.9202 14.8906 23.6453
 10 3 28.5366 15.594 21.9272
 11 3 30.5428 16.7463 22.7
 12 3 31.2366 16.5247 25.1466
 13 3 27.4846 14.6092 25.9128
 14 3 30.1892 16.7641 27.4195
 15 3 29.2429 13.8808 27.8198
 16 3 29.8019 15.0573 29.1416
ITEM: TIMESTEP
34
ITEM: NUMBER OF ATOMS
16
ITEM: BOX BOUNDS pp pp pp xy xz yz
-6.56636 63.4502 2.36216e-15
-3.08467 35.4923 -1.49181
10.1393 41.0059 1.98359e-15
ITEM: ATOMS id type xu yu zu
 1 1 28.0615 15.9546 23.9533
 2 1 28.8528 16.7422 23.1365
 3 1 30.0632 17.3426 23.6196
 4 1 30.2815 17.3813 25.007
 5 1 29.3664 16.6577 25.8805
 6 1 28.3047 15.9664 25.3358
 7 2 29.6705 16.6274 27.318
 8 2 29.7708 15.4888 27.9272
 9 3 27.1529 15.5737 23.5748
 10 3 28.6534 16.7731 22.0914
 11 3 30.8707 17.7894 23.0014
 12 3 31.2227 17.8513 25.4852
 13 3 27.5872 15.4767 25.9722
 14 3 29.7213 17.5155 27.9687
 15 3 29.6778 14.5563 27.3817
 16 3 29.8528 15.4319 29.0538
ITEM: TIMESTEP
35
ITEM: NUMBER OF ATOMS
16
ITEM: BOX BOUNDS pp pp pp xy xz yz
-6.46296 63.5536 2.36216e-15
-3.67157 34.9054 -1.49181
10.2716 41.1381 1.98359e-15
ITEM: ATOMS id type xu yu zu
 1 1 28.2084 14.932 23.9807
 2 1 29.1371 15.5364 23.1975
 3 1 30.1904 16.2561 23.7603
 4 1 30.2685 16.3425 25.1211
 5 1 29.3364 15.7583 25.9343
 6 1 28.297 15.0037 25.3556
 7 2 29.2796 16.0819 27.3523
 8 2 29.5534 15.1833 28.2717
 9 3 27.4551 14.2864 23.5451
 10 3 29.0233 15.4682 22.1142
 11 3 30.7424 16.8651 23.0267
 12 3 31.1273 16.7551 25.5394
 13 3 27.6395 14.3605 25.9643
 14 3 29.0463 17.1109 27.6015
 15 3 29.7891 14.1229 28.0434
 16 3 29.4389 15.4731 29.2955
ITEM: TIMESTEP
36
ITEM: NUMBER OF ATOMS
16
ITEM: BOX BOUNDS pp pp pp xy xz yz
-6.61206 63.4045 2.36216e-15
-4.17392 34.403 -1.49181
10.6491 41.5156 1.98359e-15
ITEM: ATOMS id type xu yu zu
 1 1 27.884 14.6158 24.4291
 2 1 28.8242 15.1047 23.4865
 3 1 29.9701 15.6815 23.9219
 4 1 30.4187 15.5853 25.2788
 5 1 29.421 15.183 26.2134
 6 1 28.1961 14.6267 25.769
 7 2 29.4971 15.5605 27.6371
 8 2 29.3137 14.66 28.6524
 9 3 26.8645 14.2604 24.1247
 10 3 28.5625 15.078 22.4352
 11 3 30.5851 16.2834 23.2843
 12 3 31.4197 15.8457 25.5877
 13 3 27.4803 14.2591 26.4955
 14 3 29.8041 16.5124 27.9242
 15 3 28.95 13.7167 28.367
 16 3 29.3779 14.9419 29.7295
ITEM: TIMESTEP
37
ITEM: NUMBER OF ATOMS
16
ITEM: BOX BOUNDS pp pp pp xy xz yz
-7.25311 62.7634 2.36216e-15
-4.15182 34.4251 -1.49181
10.459 41.3256 1.98359e-15
ITEM: ATOMS id type xu yu zu
 1 1 27.4403 14.9638 24.4281
 2 1 28.3416 15.5654 23.5249
 3 1 29.3946 16.3194 24.022
 4 1 29.5841 16.4037 25.3954
 5 1 28.8298 15.627 26.3094
 6 1 27.738 14.9398 25.8016
 7 2 29.2015 15.4936 27.7196
 8 2 29.1527 14.3198 28.3865
 9 3 26.5741 14.4571 24.0426
 10 3 28.172 15.5672 22.4517
 11 3 30.1154 16.6021 23.2882
 12 3 30.428 16.9283 25.8108
 13 3 27.1731 14.2753 26.5169
 14 3 29.5766 16.3944 28.2249
 15 3 28.8775 13.345 27.9493
 16 3 29.6074 14.3226 29.3329
ITEM: TIMESTEP
38
ITEM: NUMBER OF ATOMS
16
ITEM: BOX BOUNDS pp pp pp xy xz yz
-6.91536 63.1012 2.36216e-15
-3.61837 34.9586 -1.49181
10.4826 41.3491 1.98359e-15
ITEM: ATOMS id type xu yu zu
 1 1 27.6689 14.87 24.2059
 2 1 28.6643 15.2318 23.3655
 3 1 29.7637 15.9964 23.8334
 4 1 29.8142 16.3916 25.1673
 5 1 28.8947 15.7872 26.073
 6 1 27.8344 15.0215 25.5657
 7 2 28.914 16.1977 27.4881
 8 2 28.9151 15.2949 28.4396
 9 3 26.9914 14.1467 23.8318
 10 3 28.5862 15.0111 22.328
 11 3 30.4544 16.4556 23.1615
 12 3 30.6862 16.9893 25.5434
 13 3 27.2446 14.3928 26.2062
 14 3 29.1065 17.1935 27.7792
 15 3 28.9273 14.2741 28.11
 16 3 29.0017 15.5467 29.5037
ITEM: TIMESTEP
39
ITEM: NUMBER OF ATOMS
16
ITEM: BOX BOUNDS pp pp pp xy xz yz
-6.79921 63.2173 2.36216e-15
-4.12132 34.4556 -1.49181
10.201 41.0675 1.98359e-15
ITEM: ATOMS id type xu yu zu
 1 1 27.7946 14.6944 23.9275
 2 1 28.7812 15.2563 23.0701
 3 1 29.9464 15.8805 23.6596
 4 1 30.0406 15.9293 25.0674
 5 1 29.148 15.2336 25.886
 6 1 28.0201 14.5836 25.3229
 7 2 29.113 15.601 27.3172
 8 2 29.2254 14.6905 28.2678
 9 3 27.0023 14.0972 23.5544
 10 3 28.585 15.3181 21.986
 11 3 30.605 16.5183 23.0285
 12 3 30.9076 16.3625 25.501
 13 3 27.3064 14.0932 25.8906
 14 3 28.8695 16.6613 27.6248
 15 3 29.3959 13.673 28.1084
 16 3 29.3616 14.9708 29.2825
ITEM: TIMESTEP
40
ITEM: NUMBER OF ATOMS
16
ITEM: BOX BOUNDS pp pp pp xy xz yz
-5.98511 64.0314 2.36216e-15
-4.07207 34.5049 -1.49181
10.3606 41.2271 1.98359e-15
ITEM: ATOMS id type xu yu zu
 1 1 28.7479 14.8945 23.9052
 2 1 29.7486 15.6061 23.2099
 3 1 30.7431 16.235 23.8601
 4 1 30.7954 16.2082 25.2761
 5 1 29.8295 15.5275 25.9975
 6 1 28.8361 14.8423 25.3182
 7 2 29.8357 15.6697 27.4979
 8 2 29.535 14.6225 28.2996
 9 3 27.8786 14.4952 23.468
 10 3 29.6063 15.7703 22.1909
 11 3 31.4357 16.8491 23.2598
 12 3 31.6595 16.7196 25.8137
 13 3 28.2269 14.1763 25.9049
 14 3 29.9818 16.6819 27.8212
 15 3 29.3453 13.5837 27.9385
 16 3 29.4915 14.707 29.3968
ITEM: TIMESTEP
41
ITEM: NUMBER OF ATOMS
16
ITEM: BOX BOUNDS pp pp pp xy xz yz
-6.52956 63.487 2.36216e-15
-4.09572 34.4812 -1.49181
10.513 41.3796 1.98359e-15
ITEM: ATOMS id type xu yu zu
 1 1 27.9819 15.5085 24.3675
 2 1 29.0274 15.9124 23.5708
 3 1 30.2349 16.366 24.1887
 4 1 30.4282 16.334 25.5775
 5 1 29.3682 15.9056 26.3677
 6 1 28.1599 15.417 25.7526
 7 2 29.5194 15.7368 27.8181
 8 2 29.279 14.577 28.3591
 9 3 27.0789 15.1528 23.9024
 10 3 29.0146 15.9532 22.5259
 11 3 31.0413 16.6151 23.5218
 12 3 31.3703 16.501 26.0193
 13 3 27.3855 14.9894 26.3577
 14 3 29.8426 16.6826 28.3749
 15 3 29.0457 13.7029 27.7918
 16 3 29.5675 14.405 29.3667
ITEM: TIMESTEP
42
ITEM: NUMBER OF ATOMS
16
ITEM: BOX BOUNDS pp pp pp xy xz yz
-7.26826 62.7483 2.36216e-15
-3.74867 34.8283 -1.49181
9.97005 40.8366 1.98359e-15
ITEM: ATOMS id type xu yu zu
 1 1 27.3042 15.1018 23.9161
 2 1 28.0568 15.6652 22.9265
 3 1 29.3012 16.2746 23.2861
 4 1 29.6854 16.3872 24.6017
 5 1 28.9309 15.7912 25.6255
 6 1 27.7819 15.0767 25.2616
 7 2 29.1851 16.0732 27.0234
 8 2 29.1417 15.0979 27.9374
 9 3 26.431 14.5025 23.5696
 10 3 27.6407 15.6969 21.8334
 11 3 29.8959 16.762 22.538
 12 3 30.5408 16.9654 24.845
 13 3 27.1664 14.5443 25.955
 14 3 29.376 17.0599 27.3448
 15 3 29.0296 14.0197 27.6845
 16 3 29.3905 15.2298 28.9733
ITEM: TIMESTEP
43
ITEM: NUMBER OF ATOMS
16
ITEM: BOX BOUNDS pp pp pp xy xz yz
-7.16536 62.8512 2.36216e-15
-3.84257 34.7344 -1.49181
10.8571 41.7237 1.98359e-15
ITEM: ATOMS id type xu yu zu
 1 1 27.4588 14.7902 24.7633
 2 1 28.3363 15.3335 23.7737
 3 1 29.4018 16.1018 24.1138
 4 1 29.7481 16.2592 25.4623
 5 1 28.9887 15.5694 26.449
 6 1 27.8681 14.8504 26.1013
 7 2 29.2777 15.872 27.8452
 8 2 29.1879 14.9238 28.7909
 9 3 26.5904 14.1988 24.4927
 10 3 28.0797 15.1239 22.7646
 11 3 30.0406 16.5127 23.3722
 12 3 30.5872 16.8969 25.6709
 13 3 27.213 14.4521 26.8473
 14 3 29.6577 16.8058 28.1761
 15 3 28.7958 13.9949 28.4896
 16 3 29.5261 15.0791 29.8162
ITEM: TIMESTEP
44
ITEM: NUMBER OF ATOMS
16
ITEM: BOX BOUNDS pp pp pp xy xz yz
-7.24296 62.7736 2.36216e-15
-4.02032 34.5566 -1.49181
9.99615 40.8627 1.98359e-15
ITEM: ATOMS id type xu yu zu
 1 1 27.6253 14.4214 23.8189
 2 1 28.5155 15.0163 22.9123
 3 1 29.5393 15.8088 23.3317
 4 1 29.6559 16.0964 24.6976
 5 1 28.8449 15.4096 25.6292
 6 1 27.8126 14.6071 25.1716
 7 2 29.0486 15.6574 27.0652
 8 2 29.2511 14.6346 27.9053
 9 3 26.7739 13.8142 23.5742
 10 3 28.3298 14.9321 21.9123
 11 3 30.119 16.3464 22.5788
 12 3 30.2485 16.9839 25.0671
 13 3 27.1287 14.0578 25.8526
 14 3 29.0432 16.7236 27.5368
 15 3 29.2182 13.5524 27.6703
 16 3 29.3988 14.8731 28.9466
ITEM: TIMESTEP
45
ITEM: NUMBER OF ATOMS
16
ITEM: BOX BOUNDS pp pp pp xy xz yz
-6.66501 63.3515 2.36216e-15
-4.16472 34.4122 -1.49181
10.1314 40.9979 1.98359e-15
ITEM: ATOMS id type xu yu zu
 1 1 27.8202 15.0055 24.0085
 2 1 28.6837 15.5438 23.0763
 3 1 29.9429 16.1277 23.5171
 4 1 30.2743 16.0701 24.8728
 5 1 29.3884 15.4496 25.8216
 6 1 28.1097 14.9874 25.3603
 7 2 29.8209 15.2444 27.2848
 8 2 29.1902 14.3882 28.0713
 9 3 26.8512 14.6732 23.637
 10 3 28.4362 15.5302 22.0049
 11 3 30.6013 16.626 22.761